/*--------------------------------*- C++ -*----------------------------------*\
| =========                 |                                                 |
| \\      /  F ield         | OpenFOAM: The Open Source CFD Toolbox           |
|  \\    /   O peration     | Version:  2206                                  |
|   \\  /    A nd           | Website:  www.openfoam.com                      |
|    \\/     M anipulation  |                                                 |
\*---------------------------------------------------------------------------*/
FoamFile
{
    version     2.0;
    format      ascii;
    arch        "LSB;label=32;scalar=64";
    class       surfaceScalarField;
    location    "0.725";
    object      alphaPhi0.water;
}
// * * * * * * * * * * * * * * * * * * * * * * * * * * * * * * * * * * * * * //

dimensions      [0 3 -1 0 0 0 0];

oriented        oriented;

internalField   nonuniform List<scalar> 
4432
(
-9.63922e-07
9.63922e-07
-1.14658e-06
1.82655e-07
-6.12756e-07
-5.33823e-07
3.09481e-07
-9.22237e-07
1.34871e-06
-1.03923e-06
2.27386e-06
-9.25153e-07
2.95782e-06
-6.83958e-07
3.36325e-06
-4.05435e-07
3.51581e-06
-1.52561e-07
3.47486e-06
4.09568e-08
3.30143e-06
1.73424e-07
3.04769e-06
2.53745e-07
2.73096e-06
3.16721e-07
2.33099e-06
3.99974e-07
1.79798e-06
5.33004e-07
1.07157e-06
7.26417e-07
1.11343e-07
9.60224e-07
-1.09885e-06
1.21019e-06
-2.4452e-06
1.34635e-06
-3.44831e-06
1.00311e-06
-3.42394e-06
-2.43705e-08
-2.23221e-06
-1.19173e-06
-2.23221e-06
-1.08921e-06
2.05313e-06
-1.25737e-06
3.50816e-07
-7.37657e-07
-1.05353e-06
1.92485e-07
-1.85238e-06
1.25858e-06
-2.10532e-06
2.21909e-06
-1.88566e-06
2.94827e-06
-1.41314e-06
3.40784e-06
-8.65006e-07
3.62416e-06
-3.68876e-07
3.66008e-06
5.03153e-09
3.59387e-06
2.39638e-07
3.47756e-06
3.70048e-07
3.34935e-06
4.44934e-07
3.22677e-06
5.22555e-07
3.09867e-06
6.61105e-07
2.91513e-06
9.09957e-07
2.60004e-06
1.27531e-06
2.10571e-06
1.70452e-06
1.4752e-06
1.97686e-06
7.84018e-07
1.69429e-06
-1.13901e-07
8.73549e-07
-5.5177e-07
-7.53866e-07
-2.78398e-06
-1.1466e-06
3.19973e-06
-1.4125e-06
6.16711e-07
-9.77947e-07
-1.48808e-06
-1.10316e-07
-2.72001e-06
9.76967e-07
-3.19261e-06
1.98742e-06
-2.89612e-06
2.75119e-06
-2.17691e-06
3.24912e-06
-1.36294e-06
3.50821e-06
-6.27963e-07
3.58163e-06
-6.83827e-08
3.5326e-06
2.88665e-07
3.42514e-06
4.77502e-07
3.30842e-06
5.61653e-07
3.21666e-06
6.14319e-07
3.17918e-06
6.9859e-07
3.22879e-06
8.60344e-07
3.37268e-06
1.13141e-06
3.57346e-06
1.50375e-06
3.68086e-06
1.86945e-06
3.39847e-06
1.97668e-06
2.67302e-06
1.599e-06
1.48756e-06
4.31591e-07
-1.29641e-06
-1.26868e-06
4.4684e-06
-1.73746e-06
1.08549e-06
-1.64582e-06
-1.57972e-06
-1.02345e-06
-3.34239e-06
1.57129e-07
-4.37319e-06
1.41067e-06
-4.14965e-06
2.32368e-06
-3.08992e-06
2.90282e-06
-1.94209e-06
3.23816e-06
-9.63299e-07
3.39563e-06
-2.25851e-07
3.42912e-06
2.55177e-07
3.39152e-06
5.15101e-07
3.33233e-06
6.20834e-07
3.28592e-06
6.60737e-07
3.27478e-06
7.09726e-07
3.31766e-06
8.1746e-07
3.44129e-06
1.00779e-06
3.66217e-06
1.28287e-06
3.90948e-06
1.62214e-06
3.93703e-06
1.94913e-06
3.41384e-06
2.12218e-06
2.00101e-06
1.84443e-06
7.04591e-07
-1.49479e-06
5.96319e-06
-2.47118e-06
2.06188e-06
-3.12831e-06
-9.22588e-07
-2.88814e-06
-3.58256e-06
-1.60319e-06
-5.65813e-06
5.27139e-08
-5.80556e-06
1.40367e-06
-4.44087e-06
2.22415e-06
-2.76256e-06
2.71223e-06
-1.45139e-06
3.00222e-06
-5.15844e-07
3.16919e-06
8.82067e-08
3.25385e-06
4.30443e-07
3.30103e-06
5.73657e-07
3.34528e-06
6.16481e-07
3.40765e-06
6.47356e-07
3.49427e-06
7.30844e-07
3.59959e-06
9.0246e-07
3.71172e-06
1.17074e-06
3.80477e-06
1.52909e-06
3.77993e-06
1.97397e-06
3.36986e-06
2.53226e-06
2.15569e-06
3.0586e-06
2.86028e-06
-1.82028e-06
7.78347e-06
-3.5331e-06
3.7747e-06
-4.88994e-06
4.34258e-07
-5.00002e-06
-3.47248e-06
-3.86146e-06
-6.7967e-06
-2.0412e-06
-7.62582e-06
-2.2813e-07
-6.25394e-06
1.05014e-06
-4.04084e-06
1.83679e-06
-2.23802e-06
2.34403e-06
-1.02309e-06
2.69415e-06
-2.61912e-07
2.95501e-06
1.69581e-07
3.15572e-06
3.72952e-07
3.33104e-06
4.41153e-07
3.50475e-06
4.73648e-07
3.6871e-06
5.48492e-07
3.86721e-06
7.22353e-07
4.00661e-06
1.03134e-06
4.03734e-06
1.49836e-06
3.87306e-06
2.13825e-06
3.36271e-06
3.04261e-06
2.17061e-06
4.25069e-06
5.03089e-06
-1.92162e-06
9.70509e-06
-4.00219e-06
5.85527e-06
-5.50337e-06
1.93544e-06
-5.81121e-06
-3.16464e-06
-5.24052e-06
-7.36738e-06
-3.9041e-06
-8.96224e-06
-2.11996e-06
-8.03808e-06
-5.1087e-07
-5.64993e-06
6.37215e-07
-3.38611e-06
1.42569e-06
-1.81156e-06
2.00566e-06
-8.41891e-07
2.47257e-06
-2.97322e-07
2.87056e-06
-2.50382e-08
3.22267e-06
8.90379e-08
3.55244e-06
1.43881e-07
3.87445e-06
2.26477e-07
4.18772e-06
4.09091e-07
4.46578e-06
7.53267e-07
4.63486e-06
1.32928e-06
4.59961e-06
2.17351e-06
4.18274e-06
3.45947e-06
3.18353e-06
5.2499e-06
8.21442e-06
-1.53277e-06
1.12379e-05
-3.10791e-06
7.43041e-06
-3.84055e-06
2.66808e-06
-4.21222e-06
-2.79297e-06
-4.41566e-06
-7.16395e-06
-4.14336e-06
-9.23453e-06
-3.21247e-06
-8.96896e-06
-1.85585e-06
-7.00654e-06
-5.65667e-07
-4.67629e-06
4.53935e-07
-2.83116e-06
1.23908e-06
-1.62704e-06
1.89138e-06
-9.49623e-07
2.4733e-06
-6.06961e-07
3.0137e-06
-4.51356e-07
3.52989e-06
-3.72308e-07
4.03676e-06
-2.80392e-07
4.5372e-06
-9.13548e-08
5.01365e-06
2.76818e-07
5.39669e-06
9.46234e-07
5.55399e-06
2.01622e-06
5.1426e-06
3.87087e-06
3.85812e-06
6.53437e-06
1.20725e-05
5.88065e-06
-5.88055e-06
8.64896e-07
5.01584e-06
-1.0213e-05
1.1078e-05
-1.00477e-05
4.39702e-06
-1.58757e-05
5.6356e-07
-2.05296e-05
-2.15777e-06
-1.50476e-05
-4.46747e-06
-5.12961e-06
-4.67492e-06
-2.04466e-06
-5.04579e-06
-7.62537e-06
5.78101e-06
-1.95597e-05
1.51517e-05
-2.6403e-05
8.50861e-06
-1.95838e-05
-5.10504e-06
-5.78084e-06
-1.65795e-05
-1.71299e-05
1.00936e-05
-5.53045e-05
3.62576e-05
-6.92933e-05
1.39316e-05
-4.12322e-05
-2.74654e-05
-4.16396e-05
9.26249e-07
-6.80672e-06
-5.96944e-06
1.19116e-05
-5.49738e-06
8.88368e-06
-3.855e-06
2.46209e-06
-2.07563e-06
-1.55199e-06
-6.02797e-07
-3.99978e-06
3.77968e-06
-9.2085e-06
2.6797e-05
-1.93383e-05
5.45518e-05
-1.9826e-05
4.85919e-05
1.67514e-05
1.6218e-05
4.93807e-05
-1.49133e-05
4.50795e-05
-3.10881e-05
6.99574e-06
-3.87366e-05
-1.5677e-05
-5.64361e-05
2.76956e-05
-7.45881e-05
5.43462e-05
-7.08394e-05
1.09525e-05
-4.11378e-05
-5.15374e-05
-8.28172e-05
-3.28087e-06
-3.52612e-06
-4.09161e-06
1.27143e-05
-1.44236e-06
5.90657e-06
3.79817e-07
3.47359e-07
2.1204e-06
-3.58512e-06
6.52245e-06
-8.69179e-06
3.92499e-05
-4.14759e-05
7.5589e-05
-4.87358e-05
8.48378e-05
-2.78879e-05
7.81935e-05
2.44101e-05
5.38181e-05
7.4678e-05
1.36301e-05
8.61662e-05
-2.26526e-05
4.52372e-05
-4.69866e-05
2.98562e-06
-6.09336e-05
4.15049e-05
-6.44776e-05
5.77928e-05
-5.80154e-05
7.11254e-06
-4.04518e-05
-7.34667e-05
-0.000123259
-5.11734e-06
1.58286e-06
-1.37714e-06
8.83902e-06
1.13577e-06
3.11039e-06
3.03356e-06
-1.84299e-06
8.13376e-06
-8.96859e-06
4.52647e-05
-4.62469e-05
7.11681e-05
-6.53678e-05
8.36995e-05
-5.8896e-05
8.44141e-05
-2.60194e-05
8.58122e-05
2.31825e-05
7.25687e-05
8.88202e-05
4.10756e-05
0.000118558
-1.40155e-06
8.86148e-05
-3.52137e-05
3.35612e-05
-4.88996e-05
4.65381e-05
-4.49087e-05
5.32805e-05
-4.85191e-05
4.28434e-06
-3.5057e-05
-0.000105533
-0.000158306
-2.20434e-06
3.76535e-06
1.08506e-06
3.54009e-06
3.11041e-06
8.32982e-07
6.84422e-06
-5.86007e-06
3.94324e-05
-4.17091e-05
6.58894e-05
-7.10247e-05
7.26865e-05
-6.97403e-05
7.00675e-05
-5.37586e-05
4.50202e-05
-5.72547e-06
5.46938e-05
5.34559e-06
7.22656e-05
6.69455e-05
5.58636e-05
0.000135859
1.99194e-05
0.000125332
-1.39225e-05
7.18971e-05
-2.41286e-05
5.40895e-05
-2.70135e-05
5.64853e-05
-3.75082e-05
5.13037e-06
-2.55752e-05
-0.000117436
-0.000183868
1.51368e-07
4.49019e-06
2.32162e-06
9.99721e-07
5.8686e-06
-2.94409e-06
3.35665e-05
-3.32649e-05
6.38811e-05
-7.05416e-05
6.94198e-05
-7.48628e-05
5.57595e-05
-5.23899e-05
8.61408e-06
-5.12255e-06
9.85509e-07
2.44476e-07
3.13344e-06
9.42514e-07
4.48079e-05
3.8086e-06
5.8534e-05
0.00012053
3.62282e-05
0.000148284
4.39446e-06
0.000104245
-8.24709e-06
6.7051e-05
-1.1597e-05
5.96055e-05
-1.71593e-05
7.71157e-06
-1.43859e-05
-0.000120128
-0.000198223
1.93768e-06
2.76665e-06
1.30437e-05
-1.27525e-05
3.77096e-05
-3.06246e-05
6.27646e-05
-5.74334e-05
6.90167e-05
-7.55288e-05
4.87309e-05
-5.02892e-05
6.48665e-06
-3.19754e-06
-8.06229e-07
5.12196e-07
-3.12843e-06
9.08494e-07
-4.10855e-06
2.64019e-07
-3.66245e-06
-1.01557e-06
5.11057e-05
5.40112e-05
4.69e-05
0.000152881
2.23275e-05
0.000129027
6.41718e-06
9.85873e-05
2.57353e-06
6.30203e-05
2.52763e-07
9.6035e-06
-2.32829e-06
-0.000113721
-0.00020047
2.39473e-05
-2.33531e-05
4.63757e-05
-3.77365e-05
6.03533e-05
-4.29602e-05
6.55435e-05
-6.1219e-05
4.44288e-05
-5.0797e-05
2.09942e-06
-1.21692e-06
-2.21649e-06
4.90733e-07
-3.50066e-06
1.71982e-06
-7.35605e-06
3.11342e-06
-7.98439e-06
-2.13222e-06
-3.51319e-05
-2.96462e-05
3.93713e-06
-2.07672e-05
5.13705e-05
0.000105657
4.29662e-05
0.000137695
2.45463e-05
0.000117278
1.71545e-05
8.43503e-05
1.17234e-05
1.46069e-05
5.82025e-06
-0.000102527
-0.000193549
2.66841e-06
8.56945e-06
3.11107e-06
6.98774e-06
3.61615e-06
2.163e-06
3.35591e-06
-2.53273e-06
1.29541e-06
-5.10357e-06
-1.87701e-06
-6.06209e-06
-4.10408e-06
-6.74165e-06
-4.33604e-06
-6.77429e-06
-3.11327e-06
-5.89881e-06
-1.24107e-06
-4.7032e-06
6.95995e-07
-3.56403e-06
2.56912e-06
-2.82271e-06
4.34924e-06
-2.38707e-06
6.06218e-06
-2.16428e-06
7.74804e-06
-2.05816e-06
9.47323e-06
-2.00558e-06
1.13217e-05
-1.93978e-06
1.34027e-05
-1.80418e-06
1.58889e-05
-1.53997e-06
1.90415e-05
-1.1364e-06
2.32358e-05
-3.23476e-07
2.94899e-05
2.8029e-07
2.87939e-06
3.86831e-05
7.11912e-06
1.45033e-06
1.3984e-05
1.22911e-07
1.87467e-05
-2.4865e-06
1.91606e-05
-2.75081e-06
1.59577e-05
-1.28146e-06
1.09816e-05
-2.69497e-07
5.64788e-06
-5.30891e-07
1.34046e-06
-1.59163e-06
-8.86943e-07
-2.592e-06
-1.16316e-06
-3.21904e-06
-5.5597e-08
-3.40867e-06
1.74643e-06
-3.36347e-06
3.79126e-06
-3.23271e-06
5.876e-06
-3.11291e-06
7.9724e-06
-3.04493e-06
1.01407e-05
-3.05442e-06
1.24793e-05
-3.12628e-06
1.50984e-05
-3.22908e-06
1.81166e-05
-3.32547e-06
2.16893e-05
-3.43992e-06
2.62434e-05
-3.56558e-06
3.18386e-05
-3.9113e-06
-3.82388e-06
3.99809e-05
3.71986e-06
-6.44022e-10
5.91757e-06
-1.05558e-08
5.02491e-06
-1.12163e-07
2.58731e-06
7.51296e-08
1.58821e-06
-7.90534e-08
2.55969e-06
-1.8459e-08
3.89671e-06
-6.9979e-10
4.0824e-06
-3.14688e-11
3.09147e-06
-1.64511e-12
1.57942e-06
1.99673e-09
4.33935e-07
-1.80992e-09
4.94852e-08
1.00018e-17
2.11567e-07
1.071e-16
5.71576e-07
4.15545e-16
1.01261e-06
9.34294e-16
1.55092e-06
1.50911e-15
2.20983e-06
1.64375e-15
2.98527e-06
4.01738e-16
3.84558e-06
-1.22492e-13
4.72988e-06
-8.28845e-13
5.69473e-06
-3.93481e-12
6.48703e-06
-9.37014e-12
-1.27294e-11
7.35918e-06
-6.35965e-10
-2.24498e-12
-1.11631e-08
3.19785e-12
-1.23326e-07
-1.54109e-14
-4.81968e-08
-7.91444e-16
1.91906e-08
-4.2807e-14
7.31856e-10
-4.1108e-13
3.37105e-11
-2.62271e-12
1.80768e-12
-8.69054e-13
3.25477e-13
-3.05526e-12
1.81527e-09
1.80678e-10
1.862e-17
5.34416e-12
3.21432e-16
-1.7257e-17
1.59554e-15
-2.41223e-17
3.96884e-15
4.60621e-16
6.17868e-15
1.67781e-15
6.02818e-15
2.93915e-15
1.2892e-15
1.73568e-15
-8.07797e-15
-7.09408e-15
-5.40452e-14
-7.65252e-14
-2.38509e-13
-6.61309e-13
-5.62883e-13
-3.72957e-12
-8.71502e-13
-9.51529e-12
-1.37565e-11
-8.21043e-13
-3.44196e-12
1.27272e-12
-2.53321e-15
-2.4596e-13
-1.69878e-15
-2.04394e-14
-2.89931e-15
-1.04413e-15
-4.43722e-14
-1.85253e-15
-4.58335e-13
-2.23019e-16
-3.06497e-12
-3.07288e-14
-1.09624e-11
-3.83611e-14
-1.81586e-10
-5.64296e-14
-5.25396e-12
2.71213e-12
2.38574e-16
8.99617e-14
1.06591e-15
-5.01668e-17
3.09437e-15
-2.62443e-17
5.22206e-15
1.46016e-15
6.98927e-15
2.30866e-15
3.8362e-15
7.58666e-16
-1.53309e-14
-9.61182e-15
-2.08663e-14
-1.55872e-15
-1.9941e-13
8.50906e-14
-2.82058e-12
1.84073e-12
-1.02161e-11
3.21217e-12
-1.30735e-11
-3.01158e-11
-6.12816e-11
-4.82572e-12
2.24125e-13
2.50563e-12
-8.11916e-14
1.70967e-13
-1.59061e-14
4.30683e-14
-7.3313e-16
-2.15673e-16
-5.19591e-16
-1.46217e-16
-2.30815e-15
-3.37705e-16
-3.27601e-14
3.81962e-18
-3.52633e-13
2.17251e-16
-2.5623e-12
2.14697e-16
-8.18462e-14
3.64486e-14
4.54631e-15
4.07021e-15
5.99294e-15
-1.59826e-16
7.17605e-15
2.15465e-16
8.46976e-15
4.03153e-16
2.70154e-15
-8.94043e-17
-3.37866e-14
-6.04455e-15
-2.4807e-14
-1.85914e-14
4.88168e-15
-6.90046e-14
-3.6527e-13
6.41666e-14
-2.25751e-11
-8.12034e-11
-1.29391e-10
-4.0335e-10
-3.16306e-10
-4.16392e-10
-3.45563e-10
-5.53519e-10
5.71975e-13
1.55629e-12
-3.21074e-14
2.24818e-13
5.82488e-17
1.48085e-15
2.52121e-17
-1.9778e-17
-2.13235e-18
3.5035e-20
3.11798e-18
2.23343e-17
5.19257e-16
4.21345e-17
1.47649e-15
4.33486e-17
1.18414e-15
-2.42741e-17
4.61074e-15
-8.68559e-17
7.11566e-15
-4.3845e-16
9.18592e-15
-6.50901e-16
9.35242e-15
-6.1802e-16
-1.29407e-15
-3.25967e-16
-3.9594e-14
-1.77643e-16
-3.03766e-14
-1.5262e-14
8.1742e-14
-2.14922e-13
4.93051e-12
-5.85837e-12
-1.17112e-10
-1.07505e-10
-9.63445e-10
-3.49836e-10
-9.67033e-10
-3.88151e-10
-1.00519e-09
-3.60954e-10
-2.37557e-10
-1.11466e-09
2.48104e-14
3.81453e-15
-4.39295e-15
6.73939e-15
1.25101e-17
4.95462e-17
1.51144e-17
1.86355e-19
1.66366e-17
-1.10485e-21
1.67173e-16
-4.0918e-18
6.09987e-16
-2.22579e-17
1.50608e-15
-7.5986e-17
2.89807e-15
-2.02225e-16
4.64737e-15
-4.36617e-16
6.34608e-15
-7.37681e-16
6.64304e-15
-1.00829e-15
-9.65583e-16
-9.76947e-16
-3.37216e-14
2.38965e-16
-4.40052e-14
3.28268e-15
-2.03578e-13
3.14647e-14
-1.93416e-12
1.23893e-13
-2.40447e-10
-1.24559e-11
-1.11087e-09
-1.76166e-10
-1.14012e-09
-2.78322e-10
-1.24774e-09
-2.56754e-10
-1.55612e-09
-3.45858e-11
-9.58905e-14
-1.2602e-09
-1.01771e-15
5.95692e-16
1.17716e-17
9.94137e-17
2.24945e-19
1.67748e-18
8.01853e-19
1.45213e-19
1.83868e-17
-2.73452e-18
1.08098e-16
-1.54761e-17
3.88446e-16
-5.6992e-17
1.01451e-15
-1.59457e-16
2.0663e-15
-3.55129e-16
3.40077e-15
-6.50351e-16
4.47381e-15
-9.90408e-16
3.32263e-15
-1.21035e-15
-7.52086e-15
-8.22619e-16
-8.92595e-15
1.64406e-15
-3.6181e-14
1.1212e-14
-4.01042e-13
1.37807e-13
-4.70352e-12
1.57886e-12
-8.1202e-10
6.43483e-12
-1.17227e-09
-7.23503e-11
-1.24679e-09
-1.66845e-10
-2.38001e-10
-8.72739e-11
-8.15686e-13
-6.71897e-14
-4.91119e-14
-1.50746e-12
-1.88431e-17
1.88059e-16
-1.04119e-19
6.24725e-18
5.74733e-20
6.97468e-19
1.86924e-18
-5.57621e-19
1.78072e-17
-4.59116e-18
9.04684e-17
-2.27028e-17
3.04669e-16
-7.72735e-17
7.54006e-16
-1.98926e-16
1.46206e-15
-4.09383e-16
2.29875e-15
-6.9447e-16
2.90974e-15
-9.84642e-16
2.36204e-15
-1.1399e-15
-2.55799e-15
-8.47459e-16
-1.74648e-15
8.32559e-16
-3.00907e-15
5.16182e-15
7.48533e-15
3.44019e-14
2.0896e-13
3.94736e-13
-1.20318e-10
3.56772e-12
-9.56643e-10
1.61658e-11
-1.04941e-09
-5.37255e-14
-2.61056e-12
4.36488e-13
-1.87337e-12
2.5872e-14
7.48902e-13
-2.20846e-12
-2.58838e-19
3.64559e-17
2.5431e-22
3.50135e-19
1.88597e-19
-4.17128e-21
2.68668e-18
-8.88055e-19
1.7898e-17
-5.98834e-18
7.48442e-17
-2.58208e-17
2.23801e-16
-7.99948e-17
5.10543e-16
-1.91517e-16
9.24662e-16
-3.68389e-16
1.36369e-15
-5.83329e-16
1.64659e-15
-7.71285e-16
1.51405e-15
-8.48295e-16
2.60766e-16
-7.16198e-16
-5.1232e-15
-1.13418e-16
-7.91856e-16
8.30915e-16
1.14169e-14
5.07144e-15
1.93177e-13
3.50114e-14
2.08623e-12
-1.2108e-14
-2.8039e-10
-2.80723e-12
-5.96276e-10
-3.63172e-12
-7.30082e-11
2.87229e-11
-7.37544e-11
1.07292e-12
6.96679e-12
-5.66727e-11
-7.14544e-21
3.31133e-18
6.35384e-21
2.43054e-20
2.21305e-19
-9.18609e-20
2.40294e-18
-9.6546e-19
1.37157e-17
-5.79569e-18
5.18167e-17
-2.29711e-17
1.43084e-16
-6.66533e-17
3.03877e-16
-1.50054e-16
5.12942e-16
-2.70797e-16
7.03585e-16
-4.00497e-16
7.88039e-16
-4.9225e-16
6.72061e-16
-5.0174e-16
1.23643e-16
-3.93331e-16
-1.65594e-15
-6.69129e-17
-1.32842e-15
5.03622e-16
-2.15383e-14
7.42286e-15
-2.43134e-13
8.42895e-14
-5.70178e-13
4.56611e-14
-2.91412e-12
-2.56912e-13
-7.13836e-12
-5.05592e-14
-3.68783e-11
-1.60675e-12
-1.02667e-10
1.44465e-11
2.10467e-11
-9.42956e-11
-3.73157e-21
2.27504e-19
9.46086e-21
1.1113e-20
2.00533e-19
-9.43863e-20
1.7693e-18
-8.38329e-19
8.98345e-18
-4.57639e-18
3.11686e-17
-1.68931e-17
7.99162e-17
-4.61234e-17
1.58114e-16
-9.77894e-17
2.48548e-16
-1.6569e-16
3.16656e-16
-2.29019e-16
3.27404e-16
-2.61759e-16
2.45237e-16
-2.46357e-16
-6.81984e-17
-1.69628e-16
-1.66233e-16
3.11167e-17
-5.52893e-16
3.65047e-16
-5.61535e-14
8.65823e-15
-3.07017e-13
9.0085e-14
-2.83666e-13
9.22532e-14
-1.37752e-13
7.81089e-15
-2.63479e-13
1.68265e-14
-1.99888e-12
-8.61977e-14
-1.86365e-11
-6.28155e-13
-3.08189e-13
-3.20952e-11
1.64009e-22
1.80968e-20
9.03332e-21
-3.60415e-21
1.4209e-19
-7.28624e-20
1.07559e-18
-5.86711e-19
4.9691e-18
-2.96352e-18
1.60021e-17
-1.02872e-17
3.83383e-17
-2.65529e-17
7.0977e-17
-5.31915e-17
1.04292e-16
-8.48721e-17
1.23944e-16
-1.09995e-16
1.19402e-16
-1.17397e-16
8.31441e-17
-1.02953e-16
-3.05074e-17
-6.58804e-17
-4.7133e-17
1.80498e-17
-1.10382e-15
1.48204e-16
-2.82785e-14
2.07779e-15
-6.02686e-14
3.5319e-15
-3.68405e-14
1.91722e-15
-3.73593e-14
9.65083e-15
-5.52166e-14
1.60054e-14
-1.67193e-13
8.77366e-15
-8.37921e-13
1.09399e-15
1.04617e-14
-1.21519e-12
2.11814e-22
1.42697e-21
6.05727e-21
-3.95168e-21
7.88855e-20
-4.45972e-20
5.35107e-19
-3.32209e-19
2.29244e-18
-1.57509e-18
6.92778e-18
-5.18304e-18
1.56317e-17
-1.27153e-17
2.72646e-17
-2.41785e-17
3.76991e-17
-3.65141e-17
4.20972e-17
-4.46296e-17
3.81348e-17
-4.47837e-17
2.5718e-17
-3.69274e-17
-1.74314e-18
-2.28813e-17
-5.53426e-17
1.43385e-18
-2.36892e-16
1.2351e-17
-1.13672e-15
8.6512e-17
-2.87724e-15
3.77233e-16
-1.25848e-14
2.24251e-15
-3.05426e-14
1.00198e-14
-3.7937e-14
1.91584e-14
-4.94861e-14
2.11573e-14
-6.77021e-14
1.86368e-14
1.52313e-14
-7.20712e-14
1.3221e-22
1.67535e-22
3.04108e-21
-2.24427e-21
3.47939e-20
-2.17546e-20
2.17641e-19
-1.52361e-19
8.77366e-19
-6.86337e-19
2.51243e-18
-2.15696e-18
5.38397e-18
-5.05878e-18
8.92057e-18
-9.18647e-18
1.17098e-17
-1.32221e-17
1.24028e-17
-1.53661e-17
1.06558e-17
-1.46296e-17
6.93851e-18
-1.14373e-17
8.2665e-19
-6.84125e-18
-1.05296e-17
-7.53736e-19
-1.70552e-17
1.63586e-18
-1.44273e-16
2.00619e-17
-1.18445e-15
1.87818e-16
-8.42014e-15
1.87815e-15
-2.69729e-14
8.4017e-15
-4.05224e-14
1.93853e-14
-4.47995e-14
2.37774e-14
-4.7628e-14
2.21248e-14
2.08214e-14
-4.75797e-14
5.88936e-23
9.74036e-23
1.17515e-21
-9.55832e-22
1.22877e-20
-8.48117e-21
7.24029e-20
-5.66949e-20
2.78054e-19
-2.45237e-19
7.61801e-19
-7.41532e-19
1.56446e-18
-1.67388e-18
2.4852e-18
-2.924e-18
3.12723e-18
-4.04403e-18
3.17235e-18
-4.51001e-18
2.60301e-18
-4.11279e-18
1.61366e-18
-3.0693e-18
2.17919e-19
-1.74705e-18
-2.15967e-18
-2.1821e-19
-3.42918e-18
4.84839e-19
-4.18186e-17
6.77759e-18
-4.24793e-16
6.62604e-17
-2.87385e-15
4.76804e-16
-1.21766e-14
2.18794e-15
-2.65534e-14
7.26535e-15
-3.30238e-14
1.3668e-14
-3.50837e-14
1.56726e-14
1.50484e-14
-3.57093e-14
2.00135e-23
-2.67051e-23
3.56443e-22
-3.22411e-22
3.51159e-21
-2.66178e-21
1.98257e-20
-1.72184e-20
7.33256e-20
-7.22242e-20
1.93962e-19
-2.11679e-19
3.85124e-19
-4.63178e-19
5.91895e-19
-7.84223e-19
7.20576e-19
-1.0509e-18
7.05947e-19
-1.13464e-18
5.55334e-19
-9.99286e-19
3.21268e-19
-7.14583e-19
1.2443e-20
-3.79308e-19
-5.22084e-19
-1.35825e-20
-8.662e-19
1.47168e-19
-9.92613e-18
1.48875e-18
-8.16752e-17
1.09034e-17
-5.16262e-16
6.0698e-17
-2.71587e-15
2.93677e-16
-7.97608e-15
1.1093e-15
-1.1419e-14
2.40087e-15
-1.20628e-14
3.01846e-15
3.13322e-15
-1.3045e-14
5.38555e-24
-2.55467e-23
8.73111e-23
-8.84796e-23
8.28029e-22
-6.84015e-22
4.53911e-21
-4.3339e-21
1.63173e-20
-1.77825e-20
4.20122e-20
-5.08675e-20
8.12918e-20
-1.08618e-19
1.21838e-19
-1.79508e-19
1.44621e-19
-2.34801e-19
1.37733e-19
-2.47283e-19
1.04059e-19
-2.11705e-19
5.513e-20
-1.45333e-19
-5.04097e-21
-7.05969e-20
-2.23243e-20
3.69453e-21
-1.85449e-19
3.70299e-20
-1.61487e-18
2.25008e-19
-1.1414e-17
1.3759e-18
-7.38558e-17
7.40819e-18
-3.83292e-16
3.48147e-17
-1.04446e-15
1.05378e-16
-1.48988e-15
1.8236e-16
-1.67234e-15
2.22825e-16
2.49737e-16
-1.9191e-15
1.19305e-24
-1.16177e-23
1.78535e-23
-2.03816e-23
1.65894e-22
-1.48306e-22
8.92001e-22
-9.29033e-22
3.13956e-21
-3.75435e-21
7.91931e-21
-1.05417e-20
1.50278e-20
-2.20895e-20
2.2102e-20
-3.5838e-20
2.5734e-20
-4.60267e-20
2.39437e-20
-4.75594e-20
1.73867e-20
-3.97774e-20
8.2483e-21
-2.62372e-20
-2.18249e-21
-1.14058e-20
-4.32207e-21
1.59743e-21
-3.267e-20
6.55453e-21
-2.21176e-19
3.21489e-20
-1.46003e-18
1.74478e-19
-9.31314e-18
8.88906e-19
-4.13627e-17
3.62028e-18
-9.12384e-17
8.86998e-18
-1.21686e-16
1.31244e-17
-1.41036e-16
1.52547e-17
1.72304e-17
-1.61617e-16
2.27252e-25
-4.08325e-24
3.1817e-24
-4.09142e-24
2.92863e-23
-2.81852e-23
1.55492e-22
-1.75606e-22
5.38602e-22
-7.02069e-22
1.33725e-21
-1.94291e-21
2.49986e-21
-4.01149e-21
3.62384e-21
-6.41572e-21
4.15632e-21
-8.1244e-21
3.79147e-21
-8.27083e-21
2.64636e-21
-6.78187e-21
1.08688e-21
-4.29883e-21
-6.20697e-22
-1.61716e-21
-9.34696e-22
2.80245e-22
-5.12299e-21
9.61078e-22
-3.02268e-20
4.76252e-21
-1.81912e-19
2.33336e-20
-1.0192e-18
1.03533e-19
-3.72335e-18
3.48886e-19
-7.15486e-18
7.46235e-19
-9.21816e-18
1.04819e-18
-1.07743e-17
1.20313e-18
1.34776e-18
-1.21579e-17
3.86583e-26
-1.23565e-24
5.12522e-25
-7.40001e-25
4.70532e-24
-4.85647e-24
2.47681e-23
-3.01979e-23
8.47198e-23
-1.19768e-22
2.07707e-22
-3.27586e-22
3.83713e-22
-6.68363e-22
5.49931e-22
-1.05684e-21
6.23137e-22
-1.3235e-21
5.5871e-22
-1.33129e-21
3.75067e-22
-1.07294e-21
1.31527e-22
-6.54036e-22
-9.59362e-23
-2.10017e-22
-1.3228e-22
2.48546e-23
-7.38602e-22
1.32421e-22
-4.22896e-21
6.88492e-22
-2.32267e-20
3.23339e-21
-1.0836e-19
1.25625e-20
-3.29176e-19
3.59585e-20
-5.75413e-19
6.94951e-20
-7.25954e-19
9.41076e-20
-8.53453e-19
1.07357e-19
1.20371e-19
-9.57775e-19
6.0416e-27
-3.37167e-25
7.6737e-26
-1.23814e-25
7.05499e-25
-7.7888e-25
3.69026e-24
-4.84221e-24
1.24922e-23
-1.90819e-23
3.03107e-23
-5.16863e-23
5.54581e-23
-1.04426e-22
7.8751e-23
-1.63603e-22
8.83427e-23
-2.03052e-22
7.79981e-23
-2.02237e-22
5.04178e-23
-1.60507e-22
1.50086e-23
-9.42044e-23
-1.16602e-23
-2.56745e-23
-1.57845e-23
2.58612e-24
-9.89198e-23
1.75034e-23
-5.73383e-22
9.27423e-23
-2.90751e-21
4.2374e-22
-1.15742e-20
1.49939e-21
-3.0753e-20
3.88358e-21
-5.07266e-20
7.05254e-21
-6.34191e-20
9.34362e-21
-7.4894e-20
1.06428e-20
1.19355e-20
-8.37201e-20
8.87845e-28
-8.51311e-26
1.09024e-26
-1.95521e-26
1.00531e-25
-1.18559e-25
5.23046e-25
-7.3748e-25
1.75501e-24
-2.89038e-24
4.22148e-24
-7.76441e-24
7.66261e-24
-1.5559e-23
1.07987e-23
-2.41915e-23
1.20119e-23
-2.9805e-23
1.04588e-23
-2.94399e-23
6.51908e-24
-2.30444e-23
1.63176e-24
-1.30421e-23
-1.39877e-24
-2.98852e-24
-1.90464e-24
3.31041e-25
-1.25047e-23
2.2456e-24
-7.16589e-23
1.16786e-23
-3.38515e-22
5.06953e-23
-1.21319e-21
1.68573e-22
-2.94144e-21
4.11962e-22
-4.63948e-21
7.14241e-22
-5.75943e-21
9.26013e-22
-6.83272e-21
1.0489e-21
1.14325e-21
-7.70493e-21
1.24572e-28
-2.02253e-26
1.48906e-27
-2.95771e-27
1.3773e-26
-1.73702e-26
7.13146e-26
-1.08129e-25
2.37503e-25
-4.21757e-25
5.67198e-25
-1.12495e-24
1.02288e-24
-2.23881e-24
1.43262e-24
-3.45911e-24
1.58226e-24
-4.23615e-24
1.36046e-24
-4.15502e-24
8.191e-25
-3.21194e-24
1.70115e-25
-1.75592e-24
-1.68676e-25
-3.33834e-25
-2.31048e-25
4.30842e-26
-1.52037e-24
2.84508e-25
-8.371e-24
1.42461e-24
-3.70741e-23
5.83624e-24
-1.23258e-22
1.84255e-23
-2.78756e-22
4.29665e-23
-4.25335e-22
7.10929e-23
-5.26996e-22
8.85291e-23
-5.84088e-22
1.10094e-22
4.12956e-22
-6.24153e-22
1.68901e-29
-4.575e-27
1.96792e-28
-4.33183e-28
1.82359e-27
-2.4731e-27
9.4086e-27
-1.54099e-26
3.11578e-26
-5.986e-26
7.40034e-26
-1.58704e-25
1.32792e-25
-3.14037e-25
1.85095e-25
-4.82711e-25
2.03241e-25
-5.8825e-25
1.72798e-25
-5.7359e-25
1.00698e-25
-4.38416e-25
1.70731e-26
-2.31966e-25
-2.03728e-26
-3.60001e-26
-2.79439e-26
5.5919e-27
-1.80502e-25
3.59122e-26
-9.49537e-25
1.73314e-25
-3.9704e-24
6.77429e-25
-1.25836e-23
2.03225e-24
-2.72187e-23
4.49831e-24
-3.70386e-23
1.04955e-23
-4.45503e-23
2.63598e-23
-8.79878e-23
2.96637e-23
9.94294e-23
-1.26667e-22
2.23236e-30
-9.94012e-28
2.52121e-29
-6.18627e-29
2.33725e-28
-3.44285e-28
1.20428e-27
-2.14911e-27
3.97578e-27
-8.32191e-27
9.41042e-27
-2.19539e-26
1.68301e-26
-4.32378e-26
2.33809e-26
-6.61878e-26
2.55584e-26
-8.03454e-26
2.1518e-26
-7.79617e-26
1.21655e-26
-5.89894e-26
1.64974e-27
-3.02729e-26
-2.44582e-27
-3.75697e-27
-3.34718e-27
7.23026e-28
-2.11192e-26
4.52602e-27
-1.07405e-25
2.11527e-26
-4.27426e-25
7.92352e-26
-1.17237e-24
2.76915e-25
-2.33586e-24
8.41062e-25
-4.79156e-24
1.86424e-24
-1.04964e-23
7.26318e-24
-4.46134e-23
1.88334e-23
1.62972e-22
-2.17496e-22
2.88421e-31
-2.0884e-28
3.1213e-30
-8.65019e-30
2.89813e-29
-4.7038e-29
1.49773e-28
-2.94713e-28
4.94515e-28
-1.13903e-27
1.16912e-27
-2.99301e-27
2.08769e-27
-5.87279e-27
2.89498e-27
-8.96151e-27
3.15478e-27
-1.08464e-26
2.63405e-27
-1.04836e-26
1.4485e-27
-7.86199e-27
1.53323e-28
-3.92273e-27
-2.91509e-28
-3.79869e-28
-3.9754e-28
9.34935e-29
-2.44989e-27
5.67375e-28
-1.15315e-26
2.58338e-27
-4.14448e-26
1.15531e-26
-1.20915e-25
6.22089e-26
-4.25115e-25
3.37923e-25
-2.25341e-24
1.55371e-24
-2.96746e-23
2.32919e-23
-5.22195e-22
4.01924e-22
5.72276e-21
-6.84118e-21
3.64555e-32
-4.26497e-29
3.72986e-31
-1.18682e-30
3.48181e-30
-6.32205e-30
1.8144e-29
-3.98791e-29
6.01232e-29
-1.54065e-28
1.4229e-28
-4.03621e-28
2.54113e-28
-7.89733e-28
3.52215e-28
-1.20233e-27
3.83114e-28
-1.45223e-27
3.17675e-28
-1.39949e-27
1.7037e-28
-1.04148e-27
1.36258e-29
-5.06505e-28
-3.43559e-29
-3.70463e-29
-4.62148e-29
1.2388e-29
-2.46076e-28
8.53092e-29
-1.04575e-27
7.78002e-28
-6.34711e-27
6.73367e-27
-5.68268e-26
5.83332e-26
-1.37694e-24
1.23289e-24
-2.94494e-23
2.38822e-23
-5.065e-22
4.0639e-22
-8.37561e-21
6.64018e-21
1.03154e-19
-1.22332e-19
4.4923e-33
-8.50015e-30
4.30641e-32
-1.59936e-31
4.07514e-31
-8.37535e-31
2.15327e-30
-5.33968e-30
7.17708e-30
-2.06502e-29
1.70269e-29
-5.39807e-29
3.04464e-29
-1.05404e-28
4.22243e-29
-1.60235e-28
4.58886e-29
-1.933e-28
3.78353e-29
-1.85891e-28
1.98393e-29
-1.37444e-28
1.13859e-30
-6.53228e-29
-4.51328e-30
-3.42761e-30
-4.38603e-30
3.02917e-30
-4.09407e-29
5.42908e-29
-6.04143e-28
7.29851e-28
-1.7125e-26
1.79242e-26
-4.57738e-25
4.05882e-25
-9.35761e-24
8.332e-24
-1.80306e-22
1.59385e-22
-3.29376e-21
2.86449e-21
-5.864e-20
4.99846e-20
8.76823e-19
-9.79002e-19
5.37169e-34
-1.65819e-30
4.83532e-33
-2.11873e-32
4.68847e-32
-1.09593e-31
2.51969e-31
-7.09042e-31
8.45167e-31
-2.74813e-30
2.01063e-30
-7.17238e-30
3.60157e-30
-1.39858e-29
5.00037e-30
-2.12449e-29
5.43289e-30
-2.5616e-29
4.45822e-30
-2.46029e-29
2.28997e-30
-1.80943e-29
5.57265e-32
-8.42181e-30
-1.53523e-30
-1.87382e-31
-1.76708e-30
2.08811e-30
-3.94441e-29
5.51352e-29
-1.05513e-27
1.36632e-27
-2.5619e-26
3.40729e-26
-6.10459e-25
7.89961e-25
-1.36274e-23
1.70907e-23
-2.86091e-22
3.47839e-22
-6.38176e-21
6.67662e-21
-1.60549e-19
1.30454e-19
2.51168e-18
-2.23504e-18
6.13441e-35
-3.17242e-31
5.3038e-34
-2.76221e-33
5.34589e-33
-1.41959e-32
2.92256e-32
-9.35263e-32
9.84689e-32
-3.63544e-31
2.34749e-31
-9.47768e-31
4.21226e-31
-1.84671e-30
5.85605e-31
-2.80487e-30
6.3634e-31
-3.38246e-30
5.20084e-31
-3.24694e-30
2.61371e-31
-2.37779e-30
-2.33477e-32
-1.08292e-30
-2.60759e-31
4.77949e-32
-1.25799e-30
1.76354e-30
-3.74152e-29
5.61104e-29
-1.06446e-27
1.53797e-27
-2.82895e-26
3.86156e-26
-7.01543e-25
9.08157e-25
-1.62128e-23
2.00588e-23
-3.53633e-22
4.17365e-22
-9.75973e-21
8.31623e-21
-1.98009e-19
1.57774e-19
3.35207e-18
-1.62339e-18
6.41609e-36
-5.95682e-32
5.68596e-35
-3.55087e-34
6.04886e-34
-1.82388e-33
3.3569e-33
-1.22663e-32
1.13358e-32
-4.78314e-32
2.70665e-32
-1.24615e-31
4.86541e-32
-2.42772e-31
6.77471e-32
-3.68902e-31
7.36538e-32
-4.45188e-31
5.99863e-32
-4.27402e-31
2.91258e-32
-3.11902e-31
-1.6773e-32
-1.37294e-31
-2.14529e-32
3.37474e-32
-7.76069e-31
1.06445e-30
-2.44626e-29
3.27797e-29
-7.08046e-28
9.06683e-28
-1.90343e-26
2.32862e-26
-4.76526e-25
5.58968e-25
-1.10779e-23
1.25683e-23
-2.48681e-22
2.6579e-22
-8.54956e-21
5.41055e-21
-1.20646e-19
1.00989e-19
2.1024e-18
7.19823e-19
5.19597e-37
-1.0963e-32
5.80898e-36
-4.51572e-35
6.71112e-35
-2.32752e-34
3.78646e-34
-1.60011e-33
1.2818e-33
-6.25949e-33
3.06838e-33
-1.63054e-32
5.53076e-33
-3.17795e-32
7.71914e-33
-4.83381e-32
8.40231e-33
-5.84059e-32
6.821e-33
-5.6111e-32
3.07358e-33
-4.08154e-32
-6.65124e-33
-1.66815e-32
-8.95066e-33
1.2132e-32
-3.18168e-31
3.85997e-31
-1.02064e-29
1.17699e-29
-3.01474e-28
3.34883e-28
-8.25086e-27
8.85401e-27
-2.09536e-25
2.18218e-25
-4.92528e-24
5.02274e-24
-1.17546e-22
1.08802e-22
-4.62033e-21
2.29083e-21
-4.57487e-20
3.72145e-20
7.18085e-19
1.15907e-18
1.24377e-38
-1.97029e-33
5.3125e-37
-5.72945e-36
7.116e-36
-2.95248e-35
4.1289e-35
-2.07588e-34
1.4097e-34
-8.1469e-34
3.39761e-34
-2.12319e-33
6.1576e-34
-4.14234e-33
8.62969e-34
-6.30988e-33
9.41642e-34
-7.63671e-33
7.62054e-34
-7.34512e-33
2.94574e-34
-5.32394e-33
-1.75979e-33
-1.86713e-33
-2.34882e-33
2.8359e-33
-8.64369e-32
9.12598e-32
-2.84379e-30
2.89295e-30
-8.61498e-29
8.49555e-29
-2.41319e-27
2.3152e-27
-6.25305e-26
5.86616e-26
-1.4998e-24
1.38299e-24
-3.75346e-23
3.04886e-23
-1.43379e-21
6.35476e-22
-1.19541e-20
9.71796e-21
1.87617e-19
4.29702e-19
-2.41416e-36
-3.435e-34
3.49537e-38
-1.09149e-36
6.89151e-37
-3.72538e-36
4.26014e-36
-2.67817e-35
1.4906e-35
-1.05461e-34
3.64838e-35
-2.75153e-34
6.68037e-35
-5.37633e-34
9.42862e-35
-8.20456e-34
1.03345e-34
-9.9495e-34
8.34138e-35
-9.58403e-34
2.46847e-35
-6.91831e-34
-3.40354e-34
-1.85697e-34
-4.95786e-34
5.40252e-34
-1.63915e-32
1.70653e-32
-5.53166e-31
5.35177e-31
-1.71335e-29
1.5988e-29
-4.88802e-28
4.42472e-28
-1.28593e-26
1.13537e-26
-3.12945e-25
2.69903e-25
-7.8363e-24
5.94455e-24
-2.69204e-22
1.20435e-22
-2.24004e-21
1.84636e-21
3.51014e-20
1.11575e-19
-8.41524e-37
-5.78233e-35
1.50696e-40
-2.68821e-37
5.77437e-38
-4.67945e-37
4.0853e-37
-3.43672e-36
1.50218e-36
-1.35813e-35
3.77996e-36
-3.54939e-35
7.03874e-36
-6.94827e-35
1.00434e-35
-1.06254e-34
1.10841e-35
-1.29134e-34
8.9303e-36
-1.24608e-34
1.69285e-36
-8.95391e-35
-5.41805e-35
-1.53781e-35
-8.02973e-35
8.92407e-35
-2.66592e-33
2.86069e-33
-8.70331e-32
9.06575e-32
-2.69344e-30
2.68462e-30
-7.69062e-29
7.38406e-29