/*--------------------------------*- C++ -*----------------------------------*\
| =========                 |                                                 |
| \\      /  F ield         | OpenFOAM: The Open Source CFD Toolbox           |
|  \\    /   O peration     | Version:  2206                                  |
|   \\  /    A nd           | Website:  www.openfoam.com                      |
|    \\/     M anipulation  |                                                 |
\*---------------------------------------------------------------------------*/
FoamFile
{
    version     2.0;
    format      ascii;
    arch        "LSB;label=32;scalar=64";
    class       volScalarField;
    location    "0.725";
    object      p_rgh;
}
// * * * * * * * * * * * * * * * * * * * * * * * * * * * * * * * * * * * * * //

dimensions      [1 -1 -2 0 0 0 0];

internalField   nonuniform List<scalar> 
2268
(
756.218
756.017
755.901
755.804
755.6
755.266
754.876
754.549
754.363
754.334
754.434
754.628
754.896
755.22
755.582
755.956
756.295
756.564
756.573
756.372
756.259
756.664
757.366
756.192
755.932
755.807
755.687
755.467
755.113
754.711
754.389
754.215
754.196
754.311
754.523
754.801
755.126
755.487
755.866
756.221
756.46
756.387
755.898
755.601
756.051
756.949
756.04
755.769
755.615
755.445
755.182
754.782
754.364
754.064
753.935
753.97
754.13
754.377
754.674
755.002
755.345
755.685
755.995
756.233
756.334
756.318
756.457
756.802
757.506
755.753
755.495
755.296
755.082
754.749
754.268
753.816
753.566
753.521
753.641
753.876
754.177
754.51
754.857
755.206
755.546
755.861
756.135
756.366
756.591
756.932
757.456
758.18
755.238
754.962
754.681
754.43
754.074
753.61
753.111
752.933
753.006
753.244
753.576
753.95
754.333
754.711
755.078
755.433
755.771
756.087
756.387
756.703
757.127
757.716
758.428
754.291
753.773
753.218
752.817
752.695
752.589
752.384
752.303
752.483
752.838
753.274
753.725
754.162
754.574
754.961
755.329
755.681
756.021
756.356
756.711
757.14
757.679
758.252
752.737
751.578
750.223
749.57
750.008
750.909
751.457
751.721
752.035
752.487
753
753.519
754.006
754.449
754.851
755.223
755.576
755.917
756.247
756.565
756.859
757.092
757.172
751.006
748.754
746.473
745.444
746.618
748.796
750.336
751.175
751.722
752.255
752.815
753.368
753.881
754.341
754.747
755.113
755.453
755.779
756.084
756.368
756.539
756.679
754.979
271.362
261.419
233.259
183.874
177.386
212.69
269.548
348.402
450.22
551.031
655.778
750.436
837.53
892.242
891.646
850.989
879.541
1127.88
1326.03
269.412
258.204
221.514
171.611
170.666
197.055
248.96
332.723
448.765
567.552
673.108
761.812
832.745
911.62
904.685
828.034
833.3
1083.91
1310.46
271.751
260.941
195.008
169.412
169.559
195.692
267.228
367.234
437.709
507.745
632.99
763.424
857.308
941.067
930.209
796.163
754.254
993.331
1278.52
278.257
266.986
194.573
170.813
170.164
237.533
346.961
349.922
337.858
410.299
554.117
732.215
879.406
961.59
951.649
757.168
667.711
893.109
1236.77
283.09
237.573
198.139
174.054
225.314
347.203
326.042
290.807
170.954
214.237
450.391
676.866
878.52
973.184
905.567
701.619
610.682
829.013
1193.97
242.853
217.366
200.892
230.796
385.836
351.68
296.516
129.886
30.8165
58.6784
243.55
603.211
866.308
999.171
897.864
696.592
571.716
769.719
1158.53
258.95
276.657
339.238
455.964
409.277
334.55
99.1432
21.115
31.8133
55.8746
120.067
522.795
854.62
1007.59
933.066
702.769
564.068
742.359
1137.07
470.611
536.191
512.949
470.393
408.155
97.5856
10.8674
17.3483
28.1837
59.2648
219.078
518.629
858.741
1033.09
993.486
774.189
591.067
709.16
1135.94
749.336
746.021
742.707
741.273
743.571
747.21
749.632
750.917
751.601
752.103
752.614
753.174
753.718
754.201
754.597
754.914
755.166
755.343
755.359
755.036
753.717
750.598
741.431
756.97
755.632
739.481
714.581
686.424
688.817
703.568
709.718
710.722
714.143
718.01
722.46
726.514
729.233
730.722
731.485
731.873
732.031
732.035
731.572
730.512
726.809
722.137
269.861
255.291
236.358
226.739
234.946
249.443
256.182
256.327
253.029
246.32
238.446
235.606
237.499
239.78
239.776
238.664
237.33
235.91
234.175
231.786
227.754
216.726
197.694
2.21656
2.18848
2.15647
2.20861
3.07216
2.15324
2.15038
2.15487
2.16772
2.19056
2.21487
2.23004
2.24026
2.2504
2.26326
2.27914
2.2969
2.31597
2.33625
2.35775
2.3803
2.40374
2.42751
2.1429
2.12756
2.13528
2.15134
2.15653
2.15293
2.14868
2.14888
2.15925
2.17831
2.19755
2.21163
2.22425
2.23848
2.25449
2.27126
2.28865
2.30675
2.32566
2.34535
2.36567
2.387
2.41069
2.0937
2.07281
2.07046
2.09787
2.12268
2.14114
2.15216
2.16215
2.17339
2.1825
2.19286
2.20451
2.21762
2.23106
2.24469
2.25905
2.27444
2.29093
2.30831
2.32709
2.35405
2.38501
2.41198
2.09685
2.09489
2.0963
2.10658
2.12008
2.12987
2.13925
2.14751
2.15616
2.16615
2.17627
2.1865
2.19721
2.20954
2.22299
2.23817
2.25374
2.26975
2.288
2.32881
2.35763
2.37378
2.38941
2.10064
2.10452
2.10682
2.10866
2.11342
2.11894
2.12488
2.13165
2.13937
2.14769
2.15686
2.1669
2.17779
2.18969
2.20275
2.21576
2.22967
2.24636
2.2946
2.31719
2.33182
2.34584
2.34797
2.08395
2.08772
2.09053
2.0918
2.09493
2.09898
2.10386
2.10964
2.1163
2.12381
2.13221
2.14152
2.15175
2.1629
2.17487
2.18748
2.20073
2.22323
2.27585
2.29104
2.2969
2.27251
2.28548
2.05743
2.05899
2.06156
2.06419
2.0676
2.0717
2.07654
2.08213
2.08849
2.09561
2.10351
2.11221
2.12172
2.13204
2.14313
2.15497
2.16747
2.18151
2.22721
2.26014
2.24155
2.23865
2.25167
2.02725
2.0282
2.03035
2.03312
2.03649
2.04048
2.0451
2.05039
2.05638
2.06307
2.07048
2.07861
2.08747
2.09705
2.10736
2.11837
2.13007
2.1424
2.15958
2.1911
2.20267
2.19794
2.21237
1.99414
1.99501
1.99663
1.99902
2.00204
2.00569
2.00997
2.0149
2.02048
2.02672
2.03362
2.04119
2.04943
2.05834
2.06791
2.07814
2.08905
2.10056
2.1126
2.12533
2.13964
2.15572
2.16907
1.95708
1.95788
1.95923
1.96135
1.96406
1.9674
1.97136
1.97595
1.98115
1.98696
1.99339
2.00043
2.00809
2.01637
2.02525
2.03473
2.04483
2.05547
2.06657
2.0782
2.09033
2.10329
2.11614
1.91639
1.91708
1.91833
1.92026
1.92276
1.92585
1.92954
1.93381
1.93865
1.94408
1.95008
1.95664
1.96378
1.97148
1.97974
1.98854
1.99787
2.0077
2.01798
2.02868
2.03981
2.05113
2.06231
1.87255
1.87316
1.87431
1.87609
1.8784
1.88128
1.88472
1.88871
1.89324
1.89832
1.90394
1.91009
1.91676
1.92396
1.93167
1.93988
1.94857
1.95772
1.96729
1.97726
1.98761
1.99822
2.00886
1.82577
1.82632
1.82738
1.82902
1.83118
1.83387
1.8371
1.84084
1.84511
1.84988
1.85516
1.86095
1.86723
1.87401
1.88126
1.88898
1.89715
1.90575
1.91475
1.92414
1.9339
1.94395
1.95414
1.7762
1.77671
1.7777
1.77923
1.78126
1.78379
1.78683
1.79037
1.79439
1.7989
1.8039
1.80937
1.81532
1.82174
1.82861
1.83593
1.84368
1.85185
1.86042
1.86937
1.8787
1.88834
1.89819
1.72401
1.72448
1.72541
1.72685
1.72876
1.73116
1.73404
1.73739
1.74121
1.7455
1.75025
1.75545
1.76111
1.76723
1.77379
1.78078
1.7882
1.79604
1.80427
1.8129
1.82192
1.83128
1.8409
1.66933
1.66976
1.67064
1.67201
1.67382
1.6761
1.67884
1.68203
1.68566
1.68975
1.69428
1.69925
1.70467
1.71052
1.71682
1.72354
1.73069
1.73826
1.74624
1.75463
1.76343
1.7726
1.78207
1.61227
1.61268
1.61352
1.61481
1.61654
1.61871
1.62132
1.62436
1.62783
1.63173
1.63606
1.64083
1.64602
1.65165
1.65771
1.6642
1.67112
1.67847
1.68624
1.69444
1.70307
1.71211
1.7215
1.55297
1.55336
1.55416
1.55539
1.55703
1.55909
1.56157
1.56447
1.56778
1.57151
1.57565
1.58022
1.58521
1.59062
1.59646
1.60274
1.60944
1.61658
1.62416
1.63219
1.64067
1.6496
1.65892
1.49155
1.49191
1.49267
1.49384
1.4954
1.49736
1.49971
1.50246
1.50561
1.50915
1.51311
1.51747
1.52225
1.52744
1.53306
1.53911
1.54559
1.55251
1.55989
1.56773
1.57605
1.58485
1.59408
1.42811
1.42846
1.42918
1.43028
1.43175
1.4336
1.43582
1.43841
1.44139
1.44474
1.44849
1.45264
1.45718
1.46213
1.4675
1.47329
1.47952
1.48619
1.49331
1.50091
1.50901
1.51762
1.5267
1.36279
1.36312
1.36379
1.36482
1.3662
1.36792
1.37
1.37243
1.37521
1.37836
1.38188
1.38578
1.39006
1.39473
1.3998
1.40529
1.41119
1.41754
1.42434
1.43161
1.4394
1.44771
1.45652
1.29571
1.29602
1.29664
1.29759
1.29886
1.30045
1.30237
1.30461
1.30719
1.3101
1.31336
1.31697
1.32094
1.32528
1.33
1.33511
1.34062
1.34655
1.35292
1.35975
1.36709
1.37495
1.38335
1.227
1.22728
1.22785
1.22872
1.22987
1.23132
1.23306
1.2351
1.23743
1.24008
1.24304
1.24632
1.24994
1.25388
1.25817
1.26282
1.26784
1.27325
1.27907
1.28531
1.29204
1.29928
1.30705
1.15681
1.15706
1.15757
1.15835
1.15938
1.16067
1.16221
1.16402
1.1661
1.16844
1.17107
1.17398
1.17717
1.18066
1.18445
1.18856
1.19298
1.19775
1.20287
1.20837
1.2143
1.2207
1.2276
1.08529
1.08551
1.08596
1.08665
1.08754
1.08866
1.09
1.09156
1.09335
1.09537
1.09762
1.10011
1.10283
1.10581
1.10902
1.11249
1.11622
1.12022
1.12451
1.12911
1.13404
1.13938
1.14516
1.01262
1.01281
1.0132
1.01379
1.01455
1.01548
1.0166
1.0179
1.01938
1.02105
1.02289
1.02493
1.02714
1.02954
1.03212
1.03488
1.03783
1.04096
1.04429
1.04782
1.05159
1.05564
1.06004
0.938977
0.939146
0.939474
0.939961
0.940575
0.941327
0.942217
0.943246
0.944411
0.945709
0.947136
0.948689
0.950364
0.952156
0.954057
0.956057
0.958149
0.960332
0.962602
0.96496
0.967416
0.970009
0.9728
0.864553
0.8647
0.864969
0.865359
0.865832
0.866401
0.867066
0.867824
0.868672
0.869601
0.870603
0.871671
0.872797
0.873969
0.875173
0.87639
0.877605
0.878801
0.879965
0.881083
0.882146
0.88317
0.884207
0.789525
0.789655
0.789872
0.790173
0.790513
0.790909
0.79136
0.791859
0.792402
0.792975
0.793568
0.794167
0.79476
0.79533
0.795855
0.796309
0.796663
0.796891
0.796965
0.796855
0.79653
0.79598
0.795229
0.714068
0.71419
0.714371
0.714593
0.714816
0.715056
0.715311
0.715574
0.715835
0.716083
0.7163
0.71647
0.716575
0.716593
0.716495
0.716247
0.715812
0.71515
0.714221
0.712981
0.711378
0.709371
0.706947
0.638376
0.638478
0.638655
0.638811
0.638936
0.639039
0.639125
0.639181
0.639199
0.639164
0.639058
0.63886
0.638548
0.638094
0.637464
0.63662
0.635516
0.634102
0.63233
0.630142
0.627473
0.624253
0.620427
0.562736
0.56266
0.562913
0.562997
0.563041
0.563032
0.562978
0.562866
0.562686
0.562424
0.56206
0.561572
0.560934
0.560113
0.559075
0.557775
0.556164
0.554189
0.551793
0.548912
0.545472
0.541388
0.536572
0.487309
0.486949
0.487278
0.487277
0.487257
0.487156
0.486994
0.486756
0.486431
0.486006
0.485461
0.484771
0.483911
0.482847
0.481541
0.479951
0.478025
0.47571
0.472949
0.469676
0.465817
0.461283
0.455965
0.411951
0.411509
0.411913
0.41178
0.411693
0.411518
0.41128
0.41096
0.410547
0.410027
0.40938
0.408585
0.407614
0.406436
0.405016
0.403311
0.401273
0.398852
0.395995
0.392642
0.388727
0.384167
0.378852
0.336824
0.336476
0.336681
0.336517
0.336406
0.336194
0.335922
0.335569
0.335126
0.33458
0.333914
0.333108
0.332138
0.330977
0.32959
0.327939
0.325983
0.323678
0.320978
0.317836
0.314198
0.31
0.305143
0.261829
0.26159
0.261683
0.261498
0.261374
0.261151
0.260881
0.260542
0.260125
0.259619
0.25901
0.258282
0.257415
0.256384
0.255161
0.253714
0.252009
0.25001
0.247685
0.245
0.241918
0.238394
0.234352
0.186735
0.186651
0.186675
0.186484
0.186378
0.186173
0.185941
0.185657
0.185316
0.184908
0.184423
0.183848
0.183165
0.182358
0.181404
0.180281
0.178963
0.177425
0.175647
0.173604
0.171276
0.168635
0.165628
0.111677
0.111722
0.111657
0.111509
0.111437
0.111287
0.111132
0.110945
0.110725
0.110464
0.110155
0.109789
0.109354
0.108842
0.108239
0.107533
0.106707
0.105745
0.104633
0.103359
0.101914
0.100291
0.0984543
0.0369029
0.0371414
0.0371265
0.0370619
0.0370454
0.0369779
0.0369205
0.0368509
0.0367714
0.0366789
0.0365696
0.0364397
0.036286
0.0361061
0.0358967
0.0356519
0.0353636
0.0350238
0.0346287
0.0341779
0.0336709
0.0331063
0.032472
706.152
710.856
699.337
671.543
672.215
588.544
544.029
487.361
117.916
43.4845
15.8602
3.04084
2.48389
2.60035
2.72997
2.94185
2.46919
2.58035
2.71178
2.997
2.45435
2.53705
2.68363
2.95969
2.4271
2.48797
2.60578
2.75742
2.35755
2.43552
2.52598
2.618
2.31722
2.38588
2.46506
2.54205
2.28164
2.34128
2.40594
2.4681
2.24299
2.29289
2.34697
2.39755
2.19702
2.24002
2.28668
2.32954
2.14284
2.18445
2.22639
2.26435
2.08728
2.12787
2.16715
2.20231
2.03275
2.07132
2.10903
2.14321
1.97718
2.01461
2.05185
2.0866
1.92061
1.95759
1.99533
2.03192
1.86292
1.90003
1.93902
1.97852
1.8039
1.84156
1.88241
1.92564
1.74325
1.78172
1.82484
1.87244
1.68064
1.72001
1.76555
1.81791
1.61571
1.65584
1.70373
1.76092
1.54808
1.58861
1.63844
1.70016
1.47738
1.51767
1.56864
1.63405
1.40328
1.4424
1.49324
1.56077
1.32554
1.36225
1.41116
1.47834
1.24405
1.27683
1.32143
1.3847
1.15888
1.18599
1.22336
1.27792
1.07037
1.08998
1.11673
1.1566
0.979155
0.989592
1.00222
1.02063
0.886192
0.886247
0.8818
0.87218
0.792735
0.782024
0.759074
0.716447
0.70025
0.679521
0.639312
0.563475
0.610229
0.581433
0.5282
0.427059
0.523945
0.490047
0.429911
0.31886
0.4422
0.406797
0.346294
0.243119
0.365247
0.331866
0.277294
0.189348
0.292829
0.263929
0.218977
0.150695
0.2242
0.201467
0.167213
0.119705
0.158144
0.142042
0.118797
0.0895198
0.0939103
0.0844764
0.0714725
0.0566097
0.0309064
0.027771
0.0236552
0.0195939
631.209
604.058
528.924
393.984
127.841
14.2101
7.90875
10.4144
15.8622
64.8293
351.499
570.915
896.943
1088.85
1037.33
882.757
729.633
815.8
1202.18
377.958
204.436
13.5513
1.57778
6.57947
9.68221
6.21253
11.8002
10.3292
8.33387
15.0613
103.327
632.315
1015.85
1051.7
1031.33
1002.75
1141.9
1411.67
3.28469
3.43642
4.12991
4.24001
4.4375
4.50283
4.20265
2.79733
0.952404
2.70381
7.06258
33.1035
334.94
706.644
773.505
737.968
1045.17
1351.07
1558.65
3.19981
3.52882
3.84514
4.10543
3.87021
2.59971
2.13312
0.177615
-1.23813
0.717305
4.01079
17.5058
321.317
938.911
840.16
614.386
701.201
1292.32
1595.5
3.2114
3.39845
3.56093
3.52619
3.13943
1.71058
0.4992
-0.619898
-1.10789
0.260182
2.50476
6.79849
103.053
939.862
1239.14
763.998
742.71
1381.41
1630.63
3.0874
3.08904
3.11816
3.05818
2.6759
1.52791
-0.277322
-1.30226
-0.87766
0.433692
2.19793
3.91312
18.8382
616.933
1278.01
1375.71
1110.2
1608.34
1697.73
2.84866
2.87001
2.90025
2.82869
2.52205
1.78779
0.569933
-0.291369
-0.0650889
0.944977
2.36127
3.33863
9.02516
532.826
1345.42
1470.92
1607.38
1753.75
1803.04
2.69725
2.75329
2.76611
2.69635
2.47554
2.01953
1.27572
0.702187
0.779331
1.4982
2.51601
3.22481
5.90846
447.215
1427.47
1577.9
1737.49
1872.18
1901.56
2.60394
2.64118
2.639
2.57262
2.40896
2.11963
1.68796
1.34159
1.34042
1.78869
2.48622
2.90537
4.8775
268.623
1472.3
1671.39
1845.38
1970.65
1988.09
2.51512
2.5385
2.52732
2.46557
2.33675
2.13535
1.86836
1.64219
1.59182
1.82433
2.26141
2.41284
3.42241
91.8876
1143.11
1749.78
1933.18
2052.86
2062.98
2.43318
2.4476
2.43342
2.37979
2.27745
2.12703
1.9425
1.77481
1.6886
1.75855
1.97812
1.98878
2.04471
6.91224
514.271
1811.06
2000.07
2120.51
2127.29
2.35793
2.36764
2.35394
2.30949
2.22889
2.11392
1.97569
1.8397
1.73152
1.69552
1.74009
1.66937
1.16887
2.93737
116.618
1322.32
2048.13
2175.13
2185.49
2.28884
2.29711
2.28614
2.25084
2.18793
2.0991
1.99135
1.87613
1.75732
1.66766
1.60079
1.43205
0.871299
0.744437
3.90349
193.564
1861.28
2213.01
2245.2
2.2254
2.23457
2.22798
2.20189
2.15398
2.08533
2.00044
1.90532
1.78382
1.67981
1.57578
1.38033
0.889955
0.542039
1.03024
6.73551
467.837
2226.25
2312.8
2.16691
2.17877
2.17781
2.16106
2.12657
2.07464
2.00793
1.92778
1.82806
1.72591
1.6393
1.48931
1.10908
0.812698
0.920062
1.763
68.2281
1922.61
2387.31
2.11256
2.12855
2.13426
2.1271
2.1052
2.06823
2.0178
1.95484
1.87731
1.79241
1.75294
1.66613
1.44738
1.23755
1.2276
1.37044
10.3827
663.455
2465.87
2.06152
2.08285
2.09617
2.09902
2.08938
2.06649
2.03135
1.98573
1.93139
1.87877
1.86417
1.83601
1.75553
1.64317
1.58115
1.57267
1.7447
356.699
2545.68
2.01291
2.04065
2.06253
2.07597
2.07861
2.06924
2.0485
2.01895
1.98527
1.95915
1.96136
1.96997
1.98306
1.92182
1.87641
1.80981
1.9831
387.009
2621.04
1.96582
2.00098
2.03244
2.05726
2.07249
2.07624
2.06886
2.05337
2.03591
2.02695
2.03776
2.06825
2.10773
2.08629
2.09658
2.01397
2.21184
353.442
2686.34
1.91924
1.96281
2.00501
2.04233
2.07076
2.08742
2.09222
2.08846
2.08264
2.08357
2.09959
2.13633
2.17471
2.1994
2.27205
2.20942
2.45429
314.481
2740.12
1.87202
1.925
1.97932
2.03068
2.07345
2.10308
2.11876
2.12419
2.12612
2.13237
2.15001
2.18387
2.23358
2.27683
2.38821
2.36526
2.6552
327.995
2182.67
1.82281
1.88616
1.95426
2.02186
2.08086
2.12391
2.14911
2.16099
2.16716
2.17538
2.19166
2.22035
2.26526
2.32206
2.41631
2.58035
3.12129
422.914
454.942
1.76991
1.84444
1.92835
2.01534
2.09365
2.15126
2.18436
2.19961
2.20667
2.21395
2.22659
2.24781
2.28133
2.32329
2.39132
2.76644
29.8786
468.084
12.233
1.7112
1.79734
1.8993
2.01019
2.11287
2.18723
2.22587
2.24078
2.24543
2.24928
2.2566
2.26889
2.28765
2.30071
2.32516
3.66311
167.818
485.544
11.7202
1.64395
1.74128
1.86346
2.00448
2.13988
2.23515
2.27566
2.2851
2.28377
2.28228
2.28372
2.2864
2.28906
2.26762
2.22923
26.1585
467.029
506.137
10.8924
1.5648
1.67117
1.81469
1.99394
2.17567
2.3
2.33529
2.33206
2.32112
2.31326
2.30985
2.30503
2.29477
2.24262
2.14863
80.1966
541.821
540.282
6.71329
1.46971
1.57986
1.74277
1.96943
2.21933
2.38958
2.40497
2.37947
2.35549
2.34153
2.33621
2.32813
2.31032
2.25244
2.13033
112.817
559.548
559
2.27457
1.35423
1.45761
1.63031
1.91223
2.2717
2.51879
2.48407
2.42162
2.38268
2.36496
2.36335
2.35887
2.34864
2.30052
2.19493
101.202
576.299
307.435
1.36739
1.2142
1.29191
1.44851
1.79482
2.35878
2.73791
2.56299
2.44398
2.39504
2.38025
2.38949
2.39652
2.40146
2.38454
2.30178
37.918
593.655
6.6031
1.43876
1.04704
1.06703
1.15046
1.62612
3.93859
13.7378
2.63199
2.42214
2.3798
2.38602
2.4128
2.43894
2.46326
2.49253
2.45515
2.99336
488.113
13.6814
1.66815
0.854422
0.774732
0.706689
1.7141
26.9207
52.4432
17.998
2.36402
2.33034
2.37211
2.43143
2.4821
2.52577
2.57098
2.62757
2.87428
65.3845
36.9798
1.30947
0.644091
0.434159
0.0906562
8.2043
52.6683
53.0294
53.7939
10.2769
2.27207
2.3443
2.44741
2.52656
2.58397
2.60853
2.92299
5.24996
145.428
85.9095
-0.00910354
0.436781
0.131282
-0.507379
17.6621
51.733
53.6871
52.6658
43.2801
3.10943
2.30806
2.46476
2.57786
2.64728
2.63175
2.763
226.162
343.117
54.5326
-1.07774
0.256476
-0.0794111
-0.777343
20.2393
50.8403
30.462
23.324
42.4416
20.2
2.29847
2.50006
2.64075
2.73744
2.76621
4.35728
447.057
321.559
4.03491
-1.11666
0.122309
-0.173507
-0.538956
12.3076
2.72384
-0.487181
-0.230339
11.4957
33.0161
3.29361
2.56211
2.72689
2.80463
2.92957
17.3722
456.888
4.34452
-1.07402
-1.10216
0.0646132
-0.214983
-0.75039
3.74055
-1.11218
-0.424886
-0.06995
0.231912
11.21
36.5298
9.90397
2.85089
2.87826
3.0646
224.604
469.418
14.2225
-0.897799
-1.00175
0.0477658
-0.162372
-0.540911
0.637426
-0.576035
-0.297038
0.0588422
0.312998
0.582102
36.7662
15.9128
3.0832
3.05897
6.84235
389.428
399.144
29.7278
-0.913086
-0.910567
0.0554086
-0.0672405
-0.246482
-0.461125
-0.402205
-0.122988
0.121715
0.28956
0.452404
37.0113
32.0703
3.36928
3.32345
126.742
380
1.51649
3.53117
-0.828807
-0.845815
0.0644902
0.00697906
-0.0441672
-0.115698
-0.104012
0.00221534
0.123314
0.268398
0.377564
13.491
31.8886
3.5584
21.0991
240.597
169.416
-0.645424
-0.725591
-0.746289
-0.78158
0.0611916
0.0393667
0.0364599
0.0172098
0.0180294
0.039983
0.0821338
0.221506
0.313657
0.585055
31.079
16.6149
130.747
77.3568
-0.267569
-0.54625
-0.673093
-0.693427
-0.729913
0.0444524
0.0384982
0.0442865
0.0422802
0.0383992
0.0228397
0.0124234
0.100685
0.0108735
0.517609
28.4122
33.656
76.1956
0.415169
-0.279917
-0.528333
-0.655226
-0.661544
-0.691268
0.0171148
0.0175486
0.0215143
0.0248224
0.0123242
-0.0330784
-0.0826744
-0.0953053
-0.371869
-0.384461
3.39428
12.8756
-0.242515
-0.961676
-0.508398
-0.52297
-0.623991
-0.631194
-0.650858
)
;

boundaryField
{
    leftWall
    {
        type            fixedFluxPressure;
        gradient        uniform 0;
        value           nonuniform List<scalar> 
50
(
756.218
756.192
756.04
755.753
755.238
754.291
752.737
751.006
749.336
756.97
269.861
2.21656
2.1429
2.0937
2.09685
2.10064
2.08395
2.05743
2.02725
1.99414
1.95708
1.91639
1.87255
1.82577
1.7762
1.72401
1.66933
1.61227
1.55297
1.49155
1.42811
1.36279
1.29571
1.227
1.15681
1.08529
1.01262
0.938977
0.864553
0.789525
0.714068
0.638376
0.562736
0.487309
0.411951
0.336824
0.261829
0.186735
0.111677
0.0369029
)
;
    }
    rightWall
    {
        type            fixedFluxPressure;
        gradient        uniform 0;
        value           nonuniform List<scalar> 
50
(
1326.03
1310.46
1278.52
1236.77
1193.97
1158.53
1137.07
1135.94
1202.18
1411.67
1558.65
1595.5
1630.63
1697.73
1803.04
1901.56
1988.09
2062.98
2127.29
2185.49
2245.2
2312.8
2387.31
2465.87
2545.68
2621.04
2686.34
2740.12
2182.67
454.942
12.233
11.7202
10.8924
6.71329
2.27457
1.36739
1.43876
1.66815
1.30947
-0.00910354
-1.07774
-1.11666
-1.10216
-1.00175
-0.910567
-0.845815
-0.78158
-0.729913
-0.691268
-0.650858
)
;
    }
    lowerWall
    {
        type            fixedFluxPressure;
        gradient        uniform 0;
        value           nonuniform List<scalar> 
62
(
756.218
756.017
755.901
755.804
755.6
755.266
754.876
754.549
754.363
754.334
754.434
754.628
754.896
755.22
755.582
755.956
756.295
756.564
756.573
756.372
756.259
756.664
757.366
757.366
756.949
757.506
758.18
758.428
758.252
757.172
754.979
706.152
710.856
699.337
671.543
271.362
269.412
271.751
278.257
283.09
242.853
258.95
470.611
271.362
261.419
233.259
183.874
177.386
212.69
269.548
348.402
450.22
551.031
655.778
750.436
837.53
892.242
891.646
850.989
879.541
1127.88
1326.03
)
;
    }
    atmosphere
    {
        type            totalPressure;
        rho             rho;
        psi             none;
        gamma           1;
        p0              uniform 0;
        value           nonuniform List<scalar> 
46
(
0
0
0
0
0
0
0
0
0
0
0
0
0
0
0
0
0
0
0
0
0
0
0
0
0
0
0
0
0
0
0
-0.0209307
-0.0822559
-0.148709
-0.202666
-0.513808
-0.643391
0
0
-0.230804
-1.3459
-0.611529
-0.464195
-0.602997
-0.607067
-0.622725
)
;
    }
    defaultFaces
    {
        type            empty;
    }
}


// ************************************************************************* //
