/*--------------------------------*- C++ -*----------------------------------*\
| =========                 |                                                 |
| \\      /  F ield         | OpenFOAM: The Open Source CFD Toolbox           |
|  \\    /   O peration     | Version:  2206                                  |
|   \\  /    A nd           | Website:  www.openfoam.com                      |
|    \\/     M anipulation  |                                                 |
\*---------------------------------------------------------------------------*/
FoamFile
{
    version     2.0;
    format      ascii;
    arch        "LSB;label=32;scalar=64";
    class       volScalarField;
    location    "0.425";
    object      alpha.water;
}
// * * * * * * * * * * * * * * * * * * * * * * * * * * * * * * * * * * * * * //

dimensions      [0 0 0 0 0 0 0];

internalField   nonuniform List<scalar> 
2268
(
1
1
1
1
1
1
1
1
1
1
1
1
1
1
1
1
0.999999
0.999999
1
0.931162
0.837934
0.87156
0.998064
1
1
1
1
1
1
1
1
1
1
1
1
1
1
1
1
1
1
1
0.993654
0.837934
0.930928
0.998081
1
1
1
1
1
1
1
1
1
1
1
1
1
1
1
1
1
1
1
1
0.946885
0.98111
0.998102
1
1
1
1
1
1
1
1
1
1
1
1
1
1
1
1
1
1
1
1
0.999988
0.999904
0.998694
1
1
1
1
1
1
1
1
1
1
1
1
1
1
1
1
1
1
1
1
0.999999
0.999997
0.998754
1
1
1
1
1
1
1
1
1
1
1
1
1
1
1
1
1
1
1
1
1
1
0.998776
1
1
1
0.999998
0.999999
0.999999
1
1
1
1
1
1
1
1
1
1
1
1
1
1
1
1
0.999065
1
1
0.999995
0.999981
0.999983
0.99999
0.999995
0.999998
0.999999
1
1
1
1
1
1
1
1
1
1
1
1
1
0.999157
4.8386e-07
3.36934e-07
2.36628e-07
3.86525e-08
2.57231e-10
1.45362e-11
8.08644e-13
7.21395e-14
1.15008e-15
3.0119e-18
2.51377e-21
2.82173e-21
4.21532e-21
1.11198e-20
1.85086e-19
9.39423e-18
2.69638e-16
8.00404e-16
4.42753e-15
6.0928e-07
8.64862e-07
2.47653e-06
4.89633e-07
3.49388e-09
2.62072e-10
9.61095e-12
1.62038e-13
4.77908e-16
3.62206e-19
8.3981e-20
1.34756e-19
1.66976e-19
3.6249e-19
1.0275e-17
8.7691e-16
1.79966e-14
2.28648e-14
1.06384e-14
3.12788e-06
8.985e-06
2.63658e-05
4.01692e-06
4.01478e-08
1.9048e-09
6.84441e-11
1.03195e-12
4.50692e-15
5.04965e-18
5.96993e-18
1.45752e-17
1.9218e-17
2.7244e-17
4.31948e-16
4.21394e-14
6.69588e-13
4.83948e-13
3.17906e-13
2.8934e-05
6.75543e-05
0.000261137
6.78681e-05
3.1892e-07
1.13209e-08
2.17015e-10
2.43072e-12
2.57911e-14
4.03815e-16
3.94412e-16
9.32523e-16
1.28986e-15
1.70635e-15
1.26315e-14
8.37411e-13
1.19258e-11
1.29761e-11
1.10391e-11
0.000206857
0.00102452
0.000994323
0.000197528
7.08826e-07
3.02818e-08
6.86973e-10
1.77158e-12
6.10111e-15
1.14741e-14
1.4567e-14
3.63072e-14
4.86942e-14
4.8769e-14
2.31608e-13
5.2008e-12
8.28518e-11
2.77108e-10
2.9622e-10
0.00229077
0.00705628
0.00232843
9.93478e-06
6.00675e-07
2.5208e-08
6.65346e-10
6.125e-12
8.73221e-14
1.37214e-13
4.21746e-13
6.6746e-13
1.04499e-12
9.71066e-13
2.19764e-12
2.5123e-11
6.04077e-10
4.45716e-09
5.78841e-09
0.00504516
0.00861174
0.000992601
8.34728e-06
2.51649e-07
1.02134e-08
2.72147e-10
5.3486e-12
2.21465e-12
4.42163e-12
4.618e-12
4.28661e-12
7.9087e-12
6.69768e-12
1.57327e-11
2.35201e-10
1.18999e-08
5.58215e-08
8.68647e-08
0.0044779
0.00286903
7.51175e-05
3.24074e-05
6.96125e-07
3.04634e-09
8.14532e-11
2.10929e-12
1.2983e-12
1.31561e-12
4.11197e-12
4.87482e-12
1.12582e-11
1.37295e-11
1.23939e-10
2.1859e-09
3.60059e-08
5.10576e-07
1.03117e-06
1
1
0.999922
0.999805
0.999832
0.999891
0.999936
0.999966
0.999984
0.999993
0.999996
0.999998
0.999999
1
0.999999
1
1
1
1
1
1
1
0.99919
1
0.999833
0.987329
0.967159
0.976026
0.983097
0.985356
0.989106
0.993809
0.997533
0.999641
0.999923
0.999965
0.99999
0.999999
1
1
1
1
1
1
1
0.999767
0.970788
0.773806
0.443669
0.339119
0.390428
0.414154
0.414388
0.432714
0.470005
0.515436
0.566269
0.627832
0.689227
0.762414
0.847151
0.949306
0.999997
1
1
1
1
1
1
0.290204
0.0467758
3.46179e-17
3.6676e-16
3.69011e-15
2.18981e-14
6.01577e-14
2.16959e-13
5.92689e-12
1.95577e-10
1.88118e-09
3.38241e-05
0.0181998
0.0476773
0.0911475
0.154289
0.272695
0.513997
0.878389
0.999997
1
1
0.999993
7.51133e-19
7.07303e-19
3.89172e-18
3.46217e-17
3.66772e-16
3.69012e-15
2.18981e-14
6.01577e-14
2.16959e-13
5.92689e-12
1.95577e-10
1.88118e-09
5.40467e-09
8.95348e-09
1.11598e-07
3.06765e-06
2.54685e-05
0.0131437
0.081331
0.230562
0.525078
0.941096
0.99998
4.62369e-19
3.37423e-18
7.28623e-16
1.53069e-14
1.70953e-13
8.73434e-13
1.54504e-12
1.00942e-12
4.50949e-12
5.93746e-09
6.18599e-08
1.04068e-07
8.95348e-09
6.85806e-09
3.40478e-06
2.84013e-05
3.09845e-05
3.90351e-05
4.9604e-05
5.61582e-05
0.0106341
0.127423
0.368146
1.67616e-19
5.04404e-18
1.32489e-15
7.24705e-14
1.0789e-12
4.42707e-12
6.45882e-12
3.559e-12
9.39111e-12
5.31519e-08
3.25274e-07
3.2541e-07
7.2802e-08
2.14609e-10
5.77187e-06
0.000254721
0.000326972
0.000292017
0.000315076
0.000314521
0.000330443
0.000227843
0.000424437
-1.76459e-35
2.26678e-19
1.01442e-15
9.16479e-14
1.54701e-12
6.45882e-12
9.80806e-12
9.71028e-12
1.56935e-11
8.09016e-08
3.25646e-07
3.24238e-07
1.31375e-07
2.10052e-10
2.10054e-10
0.000179472
0.000333882
0.000328321
0.000246576
0.000398844
0.000444858
0.000184119
0.000107449
-2.31072e-18
2.86829e-35
3.6619e-16
7.06455e-14
1.42468e-12
6.58544e-12
1.06145e-11
1.06783e-11
1.17178e-11
1.99932e-08
2.54002e-07
2.96192e-07
5.28429e-08
2.30312e-10
4.45694e-10
1.47595e-10
1.24506e-05
0.00011662
8.43417e-05
8.22497e-05
0.000204085
0.000168566
9.03414e-05
-3.84671e-18
0
8.47753e-17
3.62133e-14
8.00064e-13
4.36757e-12
1.06654e-11
1.53547e-11
1.3475e-11
1.35031e-11
1.73199e-11
4.67343e-11
7.64827e-09
1.39361e-08
3.97286e-09
1.34774e-10
1.27074e-10
2.20713e-09
8.16584e-05
0.000147177
9.14803e-05
9.07516e-05
8.99392e-05
-4.74862e-18
-1.42946e-17
1.57442e-17
1.42882e-14
3.09366e-13
1.78257e-12
7.22948e-12
1.61353e-11
1.60547e-11
2.08383e-10
2.71543e-10
2.7002e-10
5.34972e-10
1.7072e-08
6.94614e-09
7.06271e-11
5.0253e-11
2.86527e-06
0.000166315
0.00022822
0.000187293
0.000120815
9.14822e-05
-4.85488e-18
-1.93111e-17
2.14835e-18
4.1549e-15
9.17477e-14
5.27128e-13
3.69448e-12
1.53705e-11
1.25649e-11
2.64138e-10
1.11097e-09
2.98309e-09
4.04368e-09
1.27809e-08
3.96561e-09
5.35971e-11
5.30954e-12
2.79596e-11
9.26457e-10
0.000167218
0.000380086
0.000418939
0.000422882
-4.53023e-18
-1.81965e-17
2.82335e-34
9.10611e-16
2.20646e-14
1.28848e-13
1.40019e-12
9.62772e-12
1.10282e-11
7.65296e-11
1.46052e-09
4.65183e-09
4.48527e-09
6.73608e-11
2.22892e-10
5.36914e-11
4.45823e-12
2.61733e-13
1.49449e-13
8.44699e-14
3.0698e-12
2.0533e-07
0.000149247
-3.82486e-18
-1.5077e-17
-1.67592e-17
1.49877e-16
4.34356e-15
2.68137e-14
3.38523e-13
3.52749e-12
9.49341e-12
1.56109e-11
8.97006e-10
3.96611e-09
1.75416e-09
6.64331e-11
4.47726e-11
3.3804e-11
4.99313e-12
2.60822e-13
2.21221e-13
1.72329e-13
1.88699e-13
2.47804e-13
5.45275e-13
-2.88044e-18
-1.08708e-17
-1.98759e-17
1.54377e-17
6.60012e-16
5.04824e-15
8.64463e-14
9.46659e-13
4.60747e-12
1.10857e-11
1.40612e-10
9.03915e-10
3.0929e-10
2.21936e-10
7.87669e-11
2.52098e-11
4.98189e-12
4.9304e-13
2.26685e-13
1.72329e-13
1.72329e-13
1.88699e-13
2.47279e-13
-1.91011e-18
-6.84653e-18
-1.49059e-17
0
7.26532e-17
8.95741e-16
2.16198e-14
2.13279e-13
1.52462e-12
8.82684e-12
1.83006e-12
8.56269e-13
3.42994e-11
7.2527e-11
4.00757e-11
1.32775e-11
2.3235e-12
2.1623e-13
5.19844e-14
1.78972e-13
9.20944e-13
2.34105e-12
3.20333e-12
-1.09954e-18
-3.72868e-18
-9.21431e-18
-2.39439e-18
5.44739e-18
1.51647e-16
4.3987e-15
4.44507e-14
4.11286e-13
3.24949e-12
1.64016e-12
8.55082e-13
5.86845e-13
1.36911e-12
2.84873e-12
2.44881e-12
7.1267e-13
1.0049e-13
1.88089e-14
2.28495e-14
1.19456e-13
5.83038e-13
2.24237e-12
-5.39628e-19
-1.72649e-18
-4.75137e-18
-1.83718e-18
1.05298e-19
2.46557e-17
7.38852e-16
7.26661e-15
4.02789e-14
2.37555e-13
4.8807e-13
7.4301e-13
4.98265e-13
1.14372e-13
2.79632e-14
2.39722e-14
2.55376e-14
1.76858e-14
6.39418e-15
7.81306e-15
4.9118e-14
2.6538e-13
1.16554e-12
-2.20733e-19
-6.64857e-19
-2.00566e-18
-8.73351e-19
-2.20507e-20
3.44889e-18
1.03342e-16
1.02642e-15
5.42375e-15
2.90762e-14
6.66953e-14
1.11927e-13
7.01848e-14
4.83718e-14
6.51912e-15
4.76601e-16
8.1664e-17
3.80463e-17
1.86048e-16
2.18643e-15
1.82774e-14
1.16404e-13
6.39869e-13
-7.30063e-20
-2.06831e-19
-6.72339e-19
-3.02993e-19
-6.26163e-20
3.84919e-19
1.1943e-17
1.40925e-16
7.5022e-16
4.94178e-15
9.59484e-15
8.91989e-15
6.5556e-15
3.09163e-15
8.40453e-16
8.1409e-17
8.95865e-19
1.83032e-18
5.16331e-17
7.5713e-16
7.00159e-15
5.30233e-14
3.76236e-13
-1.87195e-20
-4.99163e-20
-1.71468e-19
-7.6815e-20
-2.0153e-20
2.9093e-20
1.0788e-18
1.63338e-17
9.57955e-17
4.07905e-16
6.71875e-16
6.77667e-16
5.46612e-16
2.91646e-16
7.70791e-17
6.8226e-18
-7.63184e-19
0
1.27569e-17
2.50867e-16
2.70044e-15
2.4869e-14
2.32673e-13
-3.49286e-21
-8.7922e-21
-3.13378e-20
-1.37605e-20
-3.73297e-21
1.17414e-21
6.91421e-20
1.36197e-18
9.5248e-18
2.832e-17
5.18237e-17
5.48454e-17
4.73349e-17
2.53738e-17
4.21338e-18
-6.87779e-19
-2.08983e-18
-1.12608e-18
2.56604e-18
8.27984e-17
1.02546e-15
1.19762e-14
1.48982e-13
-4.24554e-22
-1.01587e-21
-3.73211e-21
-1.60006e-21
-4.31033e-22
-5.1443e-40
2.58206e-21
7.61033e-20
6.11021e-19
1.82231e-18
3.36476e-18
3.55042e-18
3.01896e-18
1.32774e-18
-2.65863e-19
-1.41556e-18
-1.82075e-18
-1.17176e-18
3.88127e-19
2.68473e-17
3.76243e-16
5.98557e-15
9.86735e-14
-2.56976e-23
-5.93142e-23
-2.2869e-22
-9.56709e-23
-2.55311e-23
-4.22635e-24
3.83107e-23
2.37777e-21
2.22643e-20
7.22839e-20
1.38636e-19
1.44128e-19
1.00802e-19
-5.88778e-20
-4.83069e-19
-8.60715e-19
-9.00298e-19
-5.70112e-19
6.44633e-20
8.48043e-18
1.31332e-16
3.09157e-15
6.72261e-14
-4.35147e-33
-1.41983e-31
-5.30986e-30
-1.07314e-28
-1.4613e-27
-1.43928e-26
1.86822e-27
2.84909e-23
3.17719e-22
1.528e-21
2.27505e-21
8.53198e-22
-9.01224e-21
-8.10091e-20
-2.14933e-19
-2.96048e-19
-2.73376e-19
-1.60094e-19
4.03622e-20
2.56306e-18
4.2981e-17
1.57931e-15
4.48755e-14
-1.99024e-33
-5.85479e-32
-2.29744e-30
-4.81259e-29
-7.03258e-28
-8.35734e-27
-7.86451e-26
-3.79205e-25
-1.89553e-24
-1.25557e-23
-1.08479e-22
-9.27014e-22
-6.57403e-21
-2.60056e-20
-5.14367e-20
-6.15244e-20
-5.15413e-20
-2.60228e-20
2.31737e-20
7.22797e-19
1.30233e-17
7.51928e-16
2.66054e-14
-7.16956e-34
-1.92952e-32
-7.89578e-31
-1.69884e-29
-2.51723e-28
-3.02659e-27
-3.14695e-26
-2.56592e-25
-1.70317e-24
-1.0252e-23
-6.03013e-23
-3.41516e-22
-1.54924e-21
-4.40979e-21
-7.29322e-21
-7.839e-21
-5.93294e-21
-2.19042e-21
7.28206e-21
1.87293e-19
3.61027e-18
3.11247e-16
1.2939e-14
-1.91348e-34
-4.81212e-33
-2.03422e-31
-4.47466e-30
-6.68411e-29
-7.96624e-28
-8.1524e-27
-7.24245e-26
-5.33771e-25
-3.19994e-24
-1.62139e-23
-7.07948e-23
-2.34264e-22
-5.25113e-22
-7.17661e-22
-6.71945e-22
-4.33896e-22
-5.49281e-23
1.77912e-21
4.42994e-20
9.04667e-19
1.09451e-16
5.18531e-15
-3.38955e-35
-8.16386e-34
-3.53432e-32
-7.9046e-31
-1.18183e-29
-1.37634e-28
-1.33773e-27
-1.12442e-26
-8.07661e-26
-4.7051e-25
-2.12987e-24
-7.41983e-24
-1.9674e-23
-3.67815e-23
-4.08361e-23
-3.12755e-23
-1.43204e-23
1.59365e-23
3.65907e-22
9.45808e-21
2.03993e-19
3.29538e-17
1.77225e-15
-3.08923e-36
-7.23984e-35
-3.20424e-33
-7.23525e-32
-1.07562e-30
-1.20291e-29
-1.05548e-28
-7.45153e-28
-4.31919e-27
-2.08074e-26
-8.36935e-26
-2.769e-25
-7.04204e-25
-1.15163e-24
-1.10712e-24
-6.8401e-25
-1.15471e-25
1.89075e-24
6.42361e-23
1.80875e-21
4.14625e-20
8.50733e-18
5.09032e-16
-3.3547e-38
-7.74275e-37
-3.26927e-35
-7.21569e-34
-1.08321e-32
-1.25987e-31
-1.18069e-30
-9.12248e-30
-5.89457e-29
-3.20123e-28
-1.44651e-27
-5.12702e-27
-1.18348e-26
-1.16652e-26
-7.28299e-27
-1.64699e-27
1.49524e-26
2.82488e-25
1.01052e-23
3.11412e-22
7.73205e-21
1.85673e-18
1.23238e-16
-8.53816e-41
-2.32232e-39
-1.09053e-37
-2.70518e-36
-4.64508e-35
-6.24222e-34
-6.81648e-33
-6.1784e-32
-4.68785e-31
-2.94721e-30
-1.45683e-29
-4.67832e-29
-4.34551e-29
-2.46084e-29
-5.1693e-30
3.84743e-29
7.6216e-28
3.52996e-26
1.41465e-24
4.85449e-23
1.33446e-21
3.47218e-19
2.54053e-17
-1.43302e-43
-4.74109e-42
-2.53374e-40
-7.22294e-39
-1.44781e-37
-2.28785e-36
-2.93723e-35
-3.10658e-34
-2.69229e-33
-1.82374e-32
-7.95401e-32
-6.56934e-32
-3.24685e-32
-3.02761e-33
4.86904e-32
1.37539e-30
8.03683e-29
3.95693e-27
1.75855e-25
6.79033e-24
2.09186e-22
5.60653e-20
4.46297e-18
-5.66505e-47
-2.55977e-45
-1.69912e-43
-6.02127e-42
-1.50181e-40
-2.91442e-39
-4.49995e-38
-5.49891e-37
-4.93391e-36
-2.42764e-35
-1.68526e-35
-6.91578e-36
-1.23323e-36
1.67905e-35
1.28034e-33
1.22619e-31
7.17559e-30
3.8304e-28
1.89466e-26
8.28004e-25
2.8698e-23
7.74685e-21
6.63134e-19
-1.71404e-51
-1.17786e-49
-1.0223e-47
-4.62555e-46
-1.4198e-44
-3.08928e-43
-4.24053e-42
-1.95527e-41
-9.80153e-42
-2.92219e-42
5.75853e-42
1.74355e-39
1.07802e-39
5.97751e-37
8.90798e-35
7.93957e-33
5.2849e-31
3.07506e-29
1.69726e-27
8.48006e-26
3.33353e-24
8.84896e-22
8.08679e-20
-8.44888e-56
-7.2778e-54
-6.61847e-52
-2.79266e-50
-5.43191e-49
-1.57536e-49
-2.77909e-50
0
3.00577e-49
6.72398e-46
4.70286e-45
4.54121e-42
3.29698e-42
3.11193e-38
4.09419e-36
3.93861e-34
2.98093e-32
1.94959e-30
1.20286e-28
7.01865e-27
3.19109e-25
7.8169e-23
7.64419e-21
-1.59212e-59
-1.98102e-57
-1.88688e-55
-5.75691e-54
-1.1562e-54
-1.4271e-55
1.02584e-54
-3.08409e-52
-1.61548e-49
-4.55825e-47
7.73938e-48
5.60662e-45
1.71595e-43
9.08238e-40
1.28598e-37
1.35064e-35
1.14521e-33
9.0589e-32
6.3845e-30
4.42969e-28
2.38431e-26
4.77527e-24
5.16589e-22
-6.83519e-64
-1.06304e-61
-5.43523e-60
-6.99929e-61
-1.91452e-61
-1.92207e-58
-1.86728e-55
-1.25759e-52
-5.64623e-50
-1.3512e-47
-3.39027e-48
2.77224e-47
1.9901e-45
1.48242e-41
2.15153e-39
2.46844e-37
2.65018e-35
2.62516e-33
2.36572e-31
1.90437e-29
1.22222e-27
1.67644e-25
2.20938e-23
-2.51964e-69
-1.89956e-70
-7.42474e-70
-5.4754e-66
-1.49544e-62
-2.28965e-59
-2.3269e-56
-1.63109e-53
-7.53158e-51
-1.83246e-48
-5.47529e-49
1.29951e-49
2.18308e-47
3.63364e-44
9.3368e-42
1.72661e-39
2.69006e-37
3.68156e-35
4.33349e-33
4.19193e-31
3.28152e-29
2.81052e-27
4.77746e-25
2.00838e-183
1.79323e-98
-1.45321e-73
-2.28712e-69
-7.75425e-66
-1.13335e-62
-7.6284e-60
-1.77441e-57
-2.84799e-58
1.35583e-56
6.18625e-54
3.34024e-54
3.39002e-55
1.54714e-49
8.92056e-46
3.0345e-43
8.97375e-41
2.27348e-38
4.81412e-36
8.41272e-34
1.16235e-31
2.97396e-29
3.31398e-27
2.80597e-174
2.22811e-99
-2.66745e-81
-2.32529e-76
-1.2308e-72
-8.11297e-74
-3.19362e-75
5.19091e-74
7.94713e-71
3.1305e-71
2.87414e-67
2.74349e-64
8.48045e-65
4.44895e-58
1.02018e-54
2.17625e-51
1.98845e-48
1.40452e-45
8.31253e-43
4.02322e-40
1.52506e-37
6.05e-32
4.12611e-30
0
-1.63907e-113
-4.83565e-94
-2.00988e-89
-3.69074e-91
4.12333e-104
0
4.92878e-78
2.56338e-73
-2.56124e-73
-1.10938e-74
-2.70573e-76
-4.99363e-78
-7.84907e-80
9.31444e-69
2.93786e-68
6.82892e-70
1.1839e-59
0
3.15728e-54
1.62799e-54
1.65644e-45
2.81363e-45
0.999583
0.999941
0.999864
0.803861
0.99987
0.999978
0.998938
0.999974
0.999993
0.999981
0.999979
0.999983
0.999985
0.999984
0.999984
0.999983
0.999985
0.999984
0.999983
0.999982
0.604394
0.797192
0.999927
0.999971
0.0165492
0.0538554
0.140102
0.260026
0.000128764
0.000175693
0.000261823
0.000429836
8.99443e-05
9.48427e-05
0.000100412
0.000120418
8.91308e-05
8.92833e-05
8.98736e-05
9.64915e-05
8.92833e-05
8.91486e-05
8.92833e-05
9.10897e-05
0.000423098
0.00046082
0.000480169
0.000501151
0.000243595
0.000228294
0.000196175
0.00018536
4.24303e-12
2.90224e-11
9.74775e-08
1.9734e-09
5.43986e-13
2.08394e-12
3.73776e-12
3.47337e-10
3.19947e-12
3.2204e-12
3.30347e-12
3.71746e-12
4.62797e-12
7.10816e-12
1.03525e-11
1.52986e-11
2.56497e-12
4.36644e-12
7.0165e-12
1.16442e-11
1.51045e-12
2.72118e-12
4.63432e-12
7.71502e-12
9.50468e-13
1.79724e-12
3.22245e-12
5.36122e-12
6.2367e-13
1.21733e-12
2.27659e-12
3.73009e-12
4.1839e-13
8.48941e-13
1.68357e-12
2.3431e-12
2.85995e-13
6.49222e-13
1.45376e-12
1.44883e-12
1.97721e-13
4.74996e-13
1.37257e-12
1.1075e-12
1.35607e-13
2.65648e-13
7.89051e-13
8.00662e-13
8.10084e-14
1.53601e-13
4.11329e-13
8.32734e-13
4.0745e-14
7.70713e-14
1.88385e-13
3.80147e-13
1.66744e-14
3.17325e-14
7.35173e-14
1.34284e-13
5.58103e-15
1.0736e-14
2.54168e-14
4.84897e-14
1.58554e-15
3.03297e-15
7.62071e-15
1.75138e-14
3.78911e-16
7.24225e-16
1.98972e-15
6.32267e-15
7.64965e-17
1.47234e-16
4.75336e-16
1.96496e-15
1.31024e-17
2.58921e-17
1.07358e-16
5.21711e-16
1.8969e-18
4.0074e-18
2.30791e-17
1.28596e-16
2.27238e-19
5.50433e-19
4.62763e-18
2.84188e-17
2.16429e-20
6.65698e-20
7.94652e-19
5.23718e-18
1.55565e-21
6.78143e-21
1.06806e-19
7.55848e-19
7.85237e-23
5.23437e-22
1.02097e-20
7.89345e-20
2.42721e-24
2.51224e-23
6.03186e-22
5.32079e-21
2.90321e-26
4.92277e-25
1.66901e-23
1.72539e-22
3.64357e-30
5.73058e-29
4.6013e-27
6.89475e-26
1.79187e-46
-1.14025e-43
-3.03791e-44
-4.40388e-45
0.281631
1.61576e-05
4.24075e-06
4.96661e-06
3.04278e-07
4.5707e-10
8.59658e-11
8.98663e-11
2.51732e-10
4.83374e-09
6.14214e-09
1.25653e-11
1.44972e-11
7.16361e-11
1.24202e-09
2.10693e-08
5.27772e-07
3.87792e-06
9.86024e-06
0.740514
0.000260537
2.21709e-07
1.99651e-08
7.16179e-09
3.99498e-09
1.42982e-06
1.99352e-06
8.41332e-09
7.21843e-10
1.13342e-10
2.0685e-11
7.16361e-11
1.24202e-09
2.10733e-08
3.02212e-07
1.50725e-05
4.00928e-05
7.67006e-05
0.96908
0.357231
2.09014e-06
2.09465e-07
7.55505e-09
7.16176e-09
1.99261e-07
6.76931e-08
1.06541e-09
8.05739e-10
4.62533e-08
1.87116e-07
2.26687e-07
2.23459e-06
2.65041e-06
4.26992e-06
0.000247988
0.00171271
0.000701982
0.999982
0.990719
0.0809651
2.08849e-06
5.04238e-06
7.83466e-09
1.00008e-07
7.00565e-08
1.54974e-09
1.06541e-09
2.91427e-08
7.95099e-08
3.46347e-07
7.61764e-05
0.000132745
1.58234e-05
0.000263739
0.00400255
0.00435036
0.999971
0.999911
0.849327
0.23548
0.316156
0.118694
1.53915e-07
7.62057e-07
0.00982965
5.17168e-08
7.38709e-08
9.75038e-08
1.81008e-07
6.64089e-07
2.98644e-06
9.4488e-06
1.59577e-05
0.00182182
0.00960055
0.999911
0.999638
0.999414
0.934531
0.945882
0.900992
0.639579
0.408447
0.544132
0.698245
0.63599
0.430337
0.228561
0.259731
0.0527303
0.114219
0.00925617
0.00680345
0.329457
0.558386
0.948756
0.993601
0.984575
0.978954
0.974364
0.968952
0.953401
0.933786
0.93234
0.933597
0.9337
0.908791
0.906565
0.872414
0.924652
0.63592
0.31312
0.798541
0.0149089
0.144202
0.370661
0.61598
0.787687
0.87911
0.922977
0.930476
0.93234
0.933597
0.9337
0.933895
0.934282
0.936188
0.938609
0.939317
0.939045
0.856748
0.917324
0.000183266
0.000323284
0.000767983
0.0220299
0.0765655
0.147345
0.220363
0.29563
0.346478
0.370993
0.405844
0.462768
0.558994
0.8001
0.936238
0.93866
0.939317
0.938093
0.929562
0.000120443
0.000210793
0.000424598
0.000459508
0.000222247
0.000119594
0.000223264
0.000381675
0.000501249
0.000594645
0.00109381
0.00320382
0.0128473
0.0600445
0.168869
0.673136
0.93866
0.933406
0.844198
0.000210644
0.000479454
0.000612287
0.000576852
0.000150245
4.14466e-06
8.01568e-06
1.13139e-05
1.19377e-05
5.86979e-06
9.71085e-06
6.79275e-06
1.90557e-05
0.00017125
0.00122999
0.178484
0.828523
0.928076
0.766901
0.000506462
0.000501151
0.000466965
0.000224718
1.3284e-05
2.0733e-07
3.37034e-07
4.08776e-07
3.20866e-07
1.26026e-07
5.97658e-08
1.65672e-07
1.15237e-06
1.96706e-05
0.000172631
0.00956028
0.689755
0.919671
0.714121
0.000142044
8.34484e-05
2.26514e-05
7.4509e-08
1.76608e-08
8.43177e-09
1.15968e-08
1.01406e-08
1.14305e-08
9.07293e-09
2.18791e-08
1.35249e-07
1.76757e-07
1.17328e-06
6.40821e-05
0.0584907
0.711243
0.908725
0.713908
7.7477e-09
8.99968e-09
6.01395e-09
2.46952e-09
1.35376e-09
1.13531e-09
1.08245e-09
1.03659e-09
8.28452e-09
9.09692e-09
9.09661e-09
1.98177e-08
5.64665e-07
1.81867e-05
0.00035757
0.117671
0.734681
0.906755
0.758176
3.39195e-11
1.38042e-10
3.70971e-10
4.62924e-10
8.17964e-10
8.99155e-10
8.07523e-10
6.85888e-10
2.30551e-08
5.12788e-07
1.99173e-08
4.0743e-08
7.17023e-07
1.78736e-05
0.000285273
0.0612192
0.668207
0.906236
0.769913
8.56778e-12
7.95795e-11
2.72987e-10
4.38565e-10
8.02913e-10
8.9389e-10
8.06107e-10
6.73174e-10
6.85888e-10
1.05204e-07
7.3037e-06
6.41946e-06
4.26643e-06
6.76627e-05
0.000538737
0.00100909
0.605401
0.800366
0.60594
4.89743e-11
1.36004e-10
2.70346e-10
4.32302e-10
6.18707e-10
6.97225e-10
6.86995e-10
6.73174e-10
6.73174e-10
6.93188e-10
8.41986e-06
2.07261e-05
7.50098e-06
1.40542e-05
1.45558e-05
0.0331634
0.642122
0.506723
0.151829
4.31668e-11
1.17709e-10
1.97198e-10
2.55482e-10
2.89074e-10
2.71483e-10
2.61253e-10
2.35874e-09
1.35024e-08
8.51329e-10
6.62858e-07
2.07204e-05
2.00964e-05
5.70892e-06
6.99503e-06
0.110116
0.642144
0.246981
0.0678335
2.48556e-11
6.90907e-11
1.22157e-10
1.46937e-10
1.52007e-10
1.52582e-10
1.54163e-10
7.23144e-09
8.44478e-08
7.8392e-08
5.63795e-08
1.27939e-05
2.06322e-05
4.28785e-06
6.43366e-06
0.151167
0.639726
0.0772774
0.0649084
1.59368e-11
5.0463e-11
9.59691e-11
1.12722e-10
1.12936e-10
9.91304e-10
2.3123e-08
7.30043e-09
2.45726e-08
2.67978e-07
5.80605e-08
3.88403e-07
2.06623e-05
3.51887e-06
4.10951e-06
0.139354
0.626738
0.0684762
0.0644416
1.19699e-11
6.30431e-11
1.15699e-10
1.1275e-10
1.12749e-10
1.9036e-09
1.429e-07
1.39688e-07
2.46538e-08
1.16342e-07
4.13074e-07
3.43077e-07
1.62704e-05
2.78269e-06
3.33153e-06
0.0746204
0.539585
0.127895
0.0643814
1.59346e-11
2.79197e-10
6.2119e-10
4.37536e-10
1.2942e-10
1.30524e-10
8.28776e-08
3.19556e-07
1.57965e-07
6.79561e-07
9.94946e-07
5.12405e-07
9.06445e-07
2.09553e-06
2.46158e-06
0.0267703
0.248365
0.286873
0.0643761
3.6137e-11
7.09789e-10
1.50447e-09
1.24323e-09
2.87159e-10
5.24214e-10
2.67248e-09
3.76278e-07
5.08002e-07
6.41022e-07
9.94946e-07
9.94946e-07
4.99603e-07
4.25484e-06
9.49872e-05
0.000343859
0.0465452
0.319822
0.0643782
6.32644e-11
1.03991e-09
1.57289e-09
1.25187e-09
2.95444e-10
6.88353e-08
3.98854e-07
8.53343e-07
7.66332e-07
3.25894e-07
4.9129e-07
9.82718e-07
4.83326e-07
3.26239e-06
1.93427e-05
2.41725e-05
0.0295676
0.319632
0.229698
4.14426e-11
7.89824e-10
1.45297e-09
8.91152e-10
5.61451e-10
1.81263e-07
8.52628e-07
8.53841e-07
5.44662e-07
1.26525e-07
1.53979e-07
3.56733e-07
3.37881e-07
5.13864e-07
3.70563e-06
5.91014e-05
0.0366244
0.263669
0.267633
7.78107e-12
5.06951e-10
8.28867e-10
6.85883e-10
6.85883e-10
3.40538e-08
4.99142e-07
8.52628e-07
7.69056e-07
8.71081e-08
7.74533e-08
8.96033e-08
1.69428e-07
9.04527e-07
7.65761e-06
6.99222e-05
0.00134842
0.0922826
0.267633
5.20615e-12
2.28806e-10
4.2581e-10
7.65796e-10
9.05422e-10
9.06336e-10
9.59803e-10
4.1837e-07
7.67929e-07
1.08208e-07
4.45182e-08
7.39119e-08
2.28671e-07
4.12602e-06
4.17492e-05
5.63354e-05
0.000220028
0.0699879
0.264802
6.18406e-12
1.29261e-10
2.15174e-10
8.7191e-10
1.46834e-09
1.01571e-09
1.04412e-09
4.60609e-09
1.37467e-07
1.48442e-07
2.5611e-08
4.35991e-08
5.24863e-07
6.12166e-06
1.19294e-05
2.16192e-06
9.65904e-05
0.138508
0.263315
5.1762e-12
1.0011e-10
1.81977e-10
5.43487e-10
1.01377e-09
1.29193e-09
1.13156e-09
1.5986e-09
1.69502e-09
5.36905e-08
2.19472e-08
2.60687e-08
1.71119e-07
4.5166e-07
9.77058e-08
1.25825e-07
1.80786e-06
0.19101
0.262962
2.32903e-12
8.01039e-11
1.81931e-10
1.63055e-10
1.78714e-11
7.40884e-08
3.97082e-08
9.14627e-09
3.40965e-07
2.13954e-08
2.20243e-08
2.15261e-08
2.35302e-08
3.54821e-08
5.93773e-08
9.77058e-08
0.00111221
0.232525
0.262872
5.73892e-13
2.94815e-11
1.06406e-10
7.12828e-11
1.67274e-11
1.4815e-07
1.49548e-07
1.03865e-07
2.02063e-05
1.09309e-05
2.26528e-08
2.35302e-08
3.44952e-08
0.00841223
0.0167481
0.0853863
0.259608
0.26215
0.262504
1.61578e-13
1.02753e-11
2.14192e-11
1.81276e-11
1.62615e-11
1.1087e-07
1.71216e-07
1.0248e-07
1.23743e-05
8.89243e-06
2.72714e-07
3.44952e-08
2.86871e-07
0.0614343
0.124824
0.125692
0.12828
0.261713
0.26215
6.09245e-14
2.22444e-12
3.16474e-12
1.5727e-11
1.58779e-11
2.7459e-08
1.80721e-07
1.116e-07
1.57164e-07
2.66309e-07
4.7115e-07
2.65532e-06
0.000770336
0.0219531
0.0713729
0.0430083
0.00175791
0.205212
0.261713
1.71389e-14
4.78087e-13
5.47255e-13
3.91593e-11
3.04874e-11
1.29571e-12
5.01482e-07
6.53256e-07
2.39939e-07
1.37935e-07
1.8961e-07
0.00808396
0.011491
0.00396464
0.00184308
0.00100267
0.00071676
0.067713
0.259459
3.49132e-15
9.04754e-14
6.86703e-14
3.51081e-11
2.83119e-11
2.34668e-13
5.44644e-07
6.53307e-07
1.77822e-07
8.52188e-08
0.0024283
0.0177654
0.0185234
0.00582245
0.00100314
0.000692657
0.000514107
0.000718061
0.248913
6.16244e-16
1.21333e-14
4.76326e-15
1.05486e-11
7.54074e-12
3.73007e-29
1.95986e-07
2.37057e-07
7.86023e-09
1.95447e-08
0.00234366
0.0185234
0.0185234
0.013864
0.000981936
0.00051411
0.000443968
0.000514095
0.207745
9.01262e-17
1.02653e-15
1.45693e-15
1.4944e-13
1.81546e-14
-3.24516e-13
-8.94667e-12
-9.87169e-12
-4.75766e-16
3.55254e-09
6.11971e-07
0.0126002
0.0185234
0.0123521
0.000720906
0.000443968
0.000410662
0.00205725
0.207889
1.02186e-17
5.47981e-17
1.14719e-16
-2.90797e-18
-1.12758e-13
-5.13181e-13
-2.27491e-11
-1.98519e-11
-4.27734e-12
3.29463e-08
0.0017857
0.0183095
0.0120506
0.00125185
0.000447164
0.000410662
0.000406053
0.00482343
0.23988
6.70133e-19
2.52788e-18
1.05116e-17
-7.12482e-17
-8.37537e-14
-4.1696e-13
-3.33825e-11
-2.34569e-11
-1.03986e-14
2.48133e-07
0.0303172
0.0390523
0.0140539
0.000472273
0.000291018
0.00034334
0.000406053
0.0114886
0.242226
2.09486e-20
7.74323e-20
1.04347e-18
-4.81074e-17
-4.48355e-14
-2.394e-13
-3.01167e-11
-1.94369e-11
6.94111e-08
9.60454e-07
0.0359591
0.0390523
0.0380108
0.00567578
6.33533e-05
0.000193278
0.000982878
0.145141
0.24218
1.61491e-23
4.8503e-22
4.39296e-20
-1.75882e-17
-1.57046e-14
-8.6624e-14
-1.26597e-11
-7.9993e-12
1.77373e-05
-1.96956e-12
0.00964539
0.0390414
-2.88759e-23
0.000278014
4.51981e-05
1.10853e-05
0.00793259
0.21894
0.242182
-2.01079e-46
-7.89036e-48
-3.82586e-22
-3.12742e-18
-2.8575e-15
-1.65119e-14
-7.19289e-14
-1.46083e-13
-6.59919e-14
-2.13661e-14
0
0.00997782
-7.62465e-19
-1.27699e-23
3.91398e-23
1.98521e-07
0.00653963
0.0568606
0.0874921
)
;

boundaryField
{
    leftWall
    {
        type            zeroGradient;
    }
    rightWall
    {
        type            zeroGradient;
    }
    lowerWall
    {
        type            zeroGradient;
    }
    atmosphere
    {
        type            inletOutlet;
        inletValue      uniform 0;
        value           nonuniform List<scalar> 
46
(
0
0
0
0
0
0
0
0
0
0
0
0
0
0
0
0
0
0
0
0
0
0
0
0
0
0
0
0
0
0
0
0
0
0
0
0
0
0
0.00997782
0
0
0
1.98521e-07
0.00653963
0.0568606
0.0874921
)
;
    }
    defaultFaces
    {
        type            empty;
    }
}


// ************************************************************************* //
