/*--------------------------------*- C++ -*----------------------------------*\
| =========                 |                                                 |
| \\      /  F ield         | OpenFOAM: The Open Source CFD Toolbox           |
|  \\    /   O peration     | Version:  2206                                  |
|   \\  /    A nd           | Website:  www.openfoam.com                      |
|    \\/     M anipulation  |                                                 |
\*---------------------------------------------------------------------------*/
FoamFile
{
    version     2.0;
    format      ascii;
    arch        "LSB;label=32;scalar=64";
    class       volScalarField;
    location    "0.425";
    object      p_rgh;
}
// * * * * * * * * * * * * * * * * * * * * * * * * * * * * * * * * * * * * * //

dimensions      [1 -1 -2 0 0 0 0];

internalField   nonuniform List<scalar> 
2268
(
837.735
838.763
845.626
855.525
860.983
861.682
859.391
857.225
857.262
860.267
866.387
875.653
888.231
904.082
923.389
946.109
971.498
997.049
1016.6
1025.78
1004.34
997.381
1040.57
836.8
837.335
844.319
854.022
859.552
860.284
858.086
856.07
856.264
859.398
865.601
874.878
887.171
902.612
921.282
943.205
967.973
994.047
1016.2
1029.43
1001.87
983.67
1032.93
834.847
834.896
841.696
851.082
856.709
857.521
855.511
853.79
854.292
857.678
864.046
873.388
885.7
901.075
919.472
940.658
963.91
987.841
1009.44
1024.02
1009.37
987.955
1032.97
832.181
831.477
837.846
846.823
852.554
853.497
851.763
850.466
851.411
855.156
861.759
871.214
883.541
898.8
916.924
937.594
959.917
982.196
1001.95
1015.92
1016.41
1007.32
1044.93
829.231
827.342
832.975
841.435
847.269
848.386
846.982
846.203
847.695
851.877
858.766
868.361
880.698
895.847
913.748
934.046
955.819
977.364
996.326
1010.53
1018.11
1023.73
1063.03
826.49
822.744
827.247
834.97
840.946
842.3
841.254
841.058
843.179
847.863
855.077
864.835
877.189
892.236
909.959
930.033
951.498
972.774
991.813
1006.84
1018.67
1031.78
1070.04
824.556
818.082
820.55
827.299
833.525
835.293
834.669
835.089
837.87
843.077
850.638
860.581
872.969
887.959
905.557
925.535
946.883
968.161
987.599
1003.26
1015.99
1029.21
1057.64
823.918
814.445
813.573
818.992
825.435
827.768
827.71
828.791
832.171
837.793
845.592
855.63
867.954
882.837
900.435
920.583
941.993
963.437
983.326
999.381
1010.81
1019.57
1022.24
258.116
257.982
257.54
257.159
256.984
256.869
256.74
256.613
256.496
256.39
256.301
256.234
256.195
256.19
256.224
256.295
256.391
256.482
256.529
258.116
257.971
257.502
257.119
256.972
256.868
256.738
256.61
256.493
256.386
256.295
256.228
256.188
256.183
256.217
256.291
256.391
256.486
256.536
258.12
257.945
257.428
257.045
256.941
256.853
256.727
256.602
256.484
256.376
256.285
256.216
256.175
256.169
256.204
256.281
256.39
256.496
256.551
258.151
257.933
257.345
256.94
256.892
256.828
256.711
256.59
256.473
256.363
256.269
256.198
256.155
256.147
256.182
256.266
256.388
256.511
256.575
258.254
258.125
257.275
256.803
256.83
256.794
256.691
256.575
256.458
256.345
256.248
256.173
256.127
256.116
256.152
256.243
256.384
256.533
256.609
258.915
259.742
257.201
256.568
256.765
256.757
256.67
256.558
256.441
256.322
256.221
256.143
256.093
256.077
256.111
256.21
256.377
256.561
256.655
259.941
259.826
256.308
256.458
256.711
256.722
256.651
256.541
256.422
256.296
256.188
256.107
256.051
256.029
256.058
256.163
256.362
256.596
256.716
261.167
257.026
255.986
256.464
256.679
256.698
256.637
256.523
256.401
256.266
256.15
256.064
256.002
255.97
255.99
256.098
256.335
256.64
256.797
825.588
812.079
804.288
806.391
812.741
815.485
816.015
818.181
822.602
828.903
837.068
847.235
859.297
873.673
890.547
911.37
933.4
955.88
977.115
993.952
1001.45
992.984
919.191
837.469
819.733
788.027
764.753
774.711
781.575
782.84
788.161
797.167
807.4
818.6
830.75
844.125
860.801
880.378
898.569
920.556
944.574
968.595
987.962
996.867
991.647
967.918
842.166
666.355
378.382
287.757
331.315
351.429
351.576
367.064
398.641
437.134
480.261
534.19
588.033
654.748
734.73
835.161
900.475
932.531
967.01
992.775
1009.53
1020.57
1028.6
282.953
46.5816
1.11441
1.08451
1.13388
1.13642
1.15194
1.17144
1.20516
1.2678
1.36725
1.36736
18.3134
47.0767
89.3504
150.64
265.68
502.046
863.247
1003.15
1031.18
1055.53
1071.27
1.07247
1.02854
0.964524
1.03508
1.0916
1.11265
1.12949
1.14752
1.17125
1.20026
1.21769
1.15895
1.03079
1.02912
1.07529
1.09829
1.19591
15.5205
90.2741
253.794
576.22
1031.13
1113.64
1.07382
1.05974
1.07961
1.06869
1.07914
1.09216
1.10571
1.11865
1.13198
1.14193
1.13716
1.10007
1.05034
1.03661
1.04852
1.1245
1.21447
1.2823
1.31677
1.3934
14.0276
155.381
449.757
1.05483
1.05005
1.05564
1.0567
1.06253
1.0706
1.07951
1.08788
1.09463
1.09714
1.09076
1.07129
1.04878
1.03858
1.04229
1.3815
1.51903
1.47949
1.50902
1.50622
1.40061
1.0854
1.46733
1.03123
1.0308
1.03672
1.03894
1.043
1.04827
1.05394
1.05886
1.06188
1.06157
1.0563
1.04528
1.03311
1.02431
1.01557
1.26201
1.48887
1.47458
1.33177
1.49272
1.44535
0.949069
0.816582
1.01138
1.01349
1.017
1.019
1.02191
1.02543
1.02901
1.03179
1.03289
1.03151
1.02747
1.02071
1.01283
1.00506
0.996498
0.980631
0.987239
1.12441
1.03924
0.9492
0.990845
0.815984
0.689226
0.990624
0.992837
0.995639
0.997624
0.999857
1.00233
1.00468
1.00631
1.0066
1.0051
1.00171
0.99691
0.991387
0.984841
0.97698
0.963991
0.947646
0.922204
1.02019
1.04583
0.82057
0.708986
0.692168
0.969836
0.971738
0.973924
0.975606
0.977393
0.979263
0.980951
0.982077
0.982246
0.981175
0.978817
0.975381
0.971104
0.965727
0.958893
0.947879
0.933456
0.915738
1.16849
1.21726
1.06198
0.881393
0.826942
0.948687
0.950156
0.951809
0.953245
0.954756
0.956308
0.957714
0.958732
0.959116
0.958683
0.957373
0.955229
0.952278
0.948314
0.942887
0.934555
0.922883
0.904376
0.870708
1.14255
1.49865
1.54284
1.56288
0.927004
0.92809
0.929381
0.93065
0.932026
0.933468
0.934841
0.93599
0.93676
0.937032
0.936745
0.93587
0.93433
0.931929
0.928285
0.922673
0.91454
0.901918
0.881029
0.849545
0.816266
0.798219
1.10734
0.904769
0.905583
0.906653
0.907842
0.909195
0.910677
0.912187
0.913622
0.914886
0.9159
0.916611
0.91697
0.916879
0.91619
0.914612
0.911745
0.907083
0.899666
0.888568
0.874599
0.862517
0.859162
0.868217
0.881984
0.882632
0.883597
0.884789
0.886211
0.887838
0.889599
0.891426
0.893259
0.895048
0.896757
0.89834
0.899734
0.90084
0.9015
0.901543
0.900738
0.898732
0.895503
0.892209
0.891796
0.898289
0.914725
0.85867
0.85924
0.860184
0.86144
0.863
0.864845
0.866932
0.869218
0.871668
0.874258
0.876967
0.879775
0.882653
0.885559
0.888442
0.891265
0.894
0.896706
0.899815
0.904375
0.91206
0.924935
0.944655
0.834836
0.835391
0.836372
0.837736
0.83948
0.841593
0.84405
0.846832
0.849924
0.85332
0.857021
0.861031
0.865357
0.870008
0.875007
0.88041
0.886309
0.892915
0.900683
0.910406
0.92323
0.940566
0.963391
0.810474
0.81105
0.812107
0.813609
0.815566
0.817974
0.820826
0.824118
0.827853
0.832043
0.836706
0.841871
0.847574
0.853865
0.860819
0.868543
0.877197
0.887053
0.898537
0.912253
0.928956
0.949519
0.974537
0.785556
0.786175
0.787331
0.788987
0.791172
0.793887
0.797138
0.800935
0.805296
0.810248
0.815825
0.822074
0.829057
0.836853
0.84557
0.855341
0.866356
0.878883
0.893287
0.910024
0.929621
0.952664
0.979524
0.760044
0.760714
0.761981
0.763798
0.766212
0.769231
0.772872
0.777154
0.782108
0.787772
0.794197
0.801444
0.809594
0.818743
0.829017
0.840568
0.853587
0.868321
0.885081
0.904213
0.926093
0.951128
0.979568
0.733896
0.734619
0.735997
0.73797
0.740608
0.743916
0.747923
0.752656
0.758156
0.764473
0.771668
0.779815
0.789006
0.79935
0.810981
0.824055
0.838761
0.855325
0.874004
0.895072
0.918807
0.945507
0.975348
0.707068
0.707839
0.709323
0.711442
0.714286
0.717859
0.722198
0.727339
0.733329
0.740228
0.748106
0.757046
0.767147
0.778525
0.791319
0.805685
0.821803
0.839881
0.860137
0.882794
0.908069
0.936197
0.967317
0.679515
0.68033
0.681908
0.684157
0.687183
0.690989
0.69562
0.701116
0.707533
0.714936
0.723402
0.733021
0.743896
0.756149
0.769919
0.785361
0.802649
0.821971
0.843522
0.867494
0.894074
0.923458
0.95577
0.651203
0.652046
0.653707
0.656066
0.659245
0.663248
0.668124
0.673918
0.680693
0.688516
0.69747
0.707648
0.719161
0.732132
0.7467
0.763019
0.781257
0.801589
0.824195
0.849256
0.876942
0.907434
0.940862
0.622091
0.622954
0.624684
0.62713
0.63043
0.634589
0.639658
0.64569
0.652747
0.660902
0.67024
0.68086
0.692875
0.706408
0.721599
0.738603
0.757582
0.778707
0.802154
0.8281
0.856716
0.888179
0.922645
0.592148
0.593028
0.594811
0.597317
0.600706
0.604976
0.610186
0.616389
0.62365
0.632044
0.641659
0.652599
0.664975
0.678913
0.694559
0.712066
0.731589
0.753303
0.777391
0.804029
0.833396
0.865677
0.901074
0.561357
0.562247
0.564076
0.566614
0.570052
0.574386
0.579681
0.585987
0.593372
0.601912
0.611696
0.62283
0.635428
0.649622
0.665554
0.683378
0.703251
0.725351
0.749878
0.777012
0.806942
0.839845
0.876029
0.529712
0.530596
0.532486
0.53501
0.538455
0.542805
0.548126
0.554467
0.561893
0.570482
0.580324
0.591526
0.60421
0.618503
0.634552
0.652509
0.672535
0.694808
0.719567
0.747002
0.7773
0.810532
0.847331
0.497228
0.498055
0.500083
0.502509
0.505914
0.510228
0.515518
0.521821
0.529204
0.537743
0.547531
0.558679
0.571305
0.585541
0.601533
0.619444
0.63943
0.661614
0.686395
0.713928
0.7445
0.777454
0.814778
0.46398
0.464816
0.466744
0.469071
0.472429
0.476669
0.481871
0.488066
0.49532
0.503712
0.513338
0.524304
0.536727
0.550746
0.566499
0.584186
0.604002
0.625679
0.650272
0.67756
0.707804
0.74114
0.778299
0.429962
0.430792
0.43269
0.434661
0.43802
0.442152
0.44721
0.453225
0.460267
0.468417
0.477769
0.488425
0.500504
0.514156
0.529436
0.546669
0.565928
0.587345
0.61133
0.638054
0.667775
0.700773
0.737529
0.395167
0.39595
0.397764
0.399463
0.40277
0.406713
0.411557
0.417318
0.424066
0.43188
0.440854
0.451069
0.46263
0.475742
0.490482
0.507045
0.525591
0.546314
0.569489
0.595363
0.624227
0.6564
0.692325
0.359611
0.360315
0.362022
0.363474
0.366706
0.370375
0.374945
0.380377
0.38675
0.39414
0.402638
0.412267
0.42322
0.43564
0.449627
0.465344
0.482967
0.5027
0.524789
0.549497
0.577131
0.608029
0.642635
0.323344
0.32397
0.325672
0.326716
0.329793
0.333209
0.337451
0.342494
0.348414
0.355287
0.363194
0.372227
0.382335
0.393942
0.407001
0.421682
0.438162
0.456644
0.477357
0.500567
0.526585
0.555753
0.588516
0.286417
0.286933
0.288576
0.289487
0.292236
0.295319
0.299189
0.303785
0.309186
0.315457
0.322674
0.33091
0.340236
0.350823
0.362774
0.376228
0.391351
0.408329
0.42738
0.448761
0.472775
0.499757
0.530131
0.248836
0.249179
0.250655
0.251731
0.254067
0.256743
0.260171
0.26426
0.269076
0.274675
0.281119
0.288478
0.296834
0.306304
0.317002
0.329043
0.342602
0.357837
0.37495
0.394182
0.415816
0.440163
0.467613
0.210559
0.2107
0.212077
0.213068
0.21506
0.217339
0.220293
0.223829
0.228004
0.232861
0.238454
0.244846
0.252111
0.260342
0.269638
0.280116
0.291909
0.305176
0.320089
0.336863
0.355748
0.377022
0.401032
0.171679
0.171619
0.172886
0.173672
0.175339
0.177221
0.179677
0.182625
0.186109
0.190165
0.194838
0.200182
0.206257
0.213139
0.22091
0.229671
0.239534
0.250628
0.263099
0.277129
0.292925
0.310717
0.330795
0.132672
0.132462
0.13358
0.134146
0.135477
0.136952
0.138893
0.141225
0.143983
0.147195
0.150897
0.155133
0.159947
0.165397
0.17155
0.178483
0.186284
0.195054
0.204903
0.215977
0.228434
0.242441
0.258206
0.0939054
0.0936294
0.0945515
0.0948795
0.0958654
0.0969326
0.0983466
0.100048
0.102061
0.104406
0.107109
0.110199
0.11371
0.117679
0.122155
0.127192
0.132852
0.139211
0.146342
0.154353
0.163344
0.173421
0.184703
0.0550781
0.0547765
0.0554638
0.055438
0.0561167
0.0567816
0.057663
0.0587231
0.0599772
0.0614375
0.0631179
0.0650349
0.0672069
0.0696554
0.072406
0.0754897
0.0789545
0.0828176
0.0871389
0.0919666
0.0973457
0.103317
0.109919
0.0143718
0.0138437
0.0141472
0.0140409
0.0143125
0.014491
0.0148058
0.0151805
0.0156238
0.0161364
0.0167207
0.0173801
0.018118
0.018933
0.0198273
0.020803
0.0218652
0.0230119
0.0242419
0.0255427
0.026889
0.0282403
0.0295304
774.208
784.865
798.243
692.162
931.84
918.074
902.988
902.162
1027.54
1025.7
1029.43
1043.64
1078.72
1085.41
1096.11
1111.8
1128.99
1140.41
1152.82
1166.08
735.959
968.041
1213.32
1225.02
22.7733
72.6606
188.59
350.435
0.860709
0.954141
1.15419
1.56335
0.756139
0.814525
0.867161
0.935153
0.762757
0.821192
0.87968
0.944667
0.860925
0.902539
0.95008
0.999697
1.59967
1.6992
1.76589
1.83753
1.32322
1.31262
1.27285
1.27953
0.884913
0.898531
0.916274
0.937015
0.933905
0.948062
0.964338
0.982728
0.964209
0.978315
0.993988
1.01105
0.98402
0.998398
1.01392
1.03053
0.996082
1.01085
1.02656
1.0432
1.00194
1.01713
1.03314
1.04995
1.00283
1.01847
1.03483
1.05191
0.99944
1.01554
1.03231
1.04974
0.992243
1.00884
1.02608
1.04395
0.981544
0.998682
1.01645
1.03484
0.967498
0.985207
1.00357
1.02257
0.950143
0.968444
0.987435
1.00711
0.929403
0.948293
0.967931
0.988318
0.905114
0.924556
0.944812
0.965888
0.877042
0.896946
0.917733
0.939424
0.844926
0.865145
0.88629
0.908397
0.808527
0.828842
0.850137
0.872455
0.767524
0.787719
0.808945
0.831259
0.721726
0.741558
0.762465
0.784515
0.671047
0.69025
0.710551
0.732019
0.615501
0.633776
0.65314
0.673658
0.555214
0.572226
0.590281
0.609435
0.490325
0.505737
0.522097
0.539454
0.420926
0.434417
0.448717
0.463862
0.347421
0.35868
0.370588
0.383161
0.271195
0.279976
0.289244
0.299007
0.193936
0.200146
0.206675
0.213529
0.115244
0.118787
0.12246
0.126251
0.0303547
0.0307989
0.0311384
0.0313329
399.173
255.17
256.329
256.547
256.669
256.683
256.625
256.497
256.374
256.215
256.081
255.989
255.914
255.86
255.857
255.956
256.264
256.726
256.956
740.898
258.127
256.924
256.785
256.726
256.705
256.638
256.482
256.316
256.115
255.953
255.868
255.767
255.662
255.584
255.604
255.977
256.795
257.321
1031.87
530.049
256.891
257.053
256.883
256.823
256.696
256.504
256.297
255.989
255.766
255.744
255.607
255.426
255.197
254.927
255.119
257.548
258.354
1136.78
1148.97
331.281
257.24
256.548
256.979
256.771
256.761
256.433
255.723
255.517
255.646
255.456
255.257
254.754
253.996
253.004
257.041
261.886
1191.02
1228.13
1106.94
485.464
561.242
377.83
257.071
256.816
265.661
254.557
255.062
255.432
255.289
254.989
254.111
253.486
251.115
247.826
267.187
1247.85
1281.97
1317.29
1258.66
1265.45
1231.89
958.421
703.636
831.932
1003.84
952.787
727.931
505.784
540.19
311.412
377.588
260.186
245.855
631.458
749.99
1272.97
1354.47
1367.23
1373.25
1376.81
1395.66
1391.3
1337.76
1325.06
1359.05
1383.33
1350.77
1325.8
1298.75
1348.79
1026.97
628.727
1389.2
22.5213
212.247
545.983
906.355
1160.27
1297.06
1368.56
1389.12
1392.27
1394.11
1402.34
1413.24
1419.46
1425.92
1461.65
1521.99
1650.14
1701.68
2115.46
1.06659
1.35057
2.28073
35.8663
123.157
236.311
353.029
473.343
554.483
593.442
649.048
740.155
894.716
1282.46
1538.93
1669.98
1928.32
2257.27
2577.73
1.06438
1.29251
1.71919
1.8038
1.53488
1.48722
1.76952
2.11722
2.3554
2.52792
3.46893
7.30566
24.1468
106.14
305.891
1245.04
1980.2
2350.98
2510.13
1.28032
1.81572
2.112
2.11266
1.44096
1.28167
1.38419
1.47985
1.57163
1.65846
1.77467
1.89347
2.06706
2.75227
7.68265
343.689
1694.42
2281.35
2257.81
1.89862
1.94225
1.93384
1.53243
1.20689
1.2773
1.38018
1.48257
1.58705
1.6941
1.79893
1.91526
2.07847
2.33566
3.78387
25.6245
1357.97
2189.73
2007.34
1.23936
1.17751
1.10459
1.11978
1.20231
1.29778
1.39668
1.49673
1.59937
1.70457
1.79544
1.90329
2.04977
2.20231
3.03187
123.698
1483.78
2158.8
1890.13
0.976488
1.03081
1.08947
1.15587
1.23386
1.31904
1.40753
1.49968
1.59556
1.69267
1.7898
1.89658
2.01519
2.1471
3.20323
258.519
1633.67
2176.3
1920.26
1.01466
1.06542
1.12251
1.18648
1.25754
1.3342
1.41541
1.50111
1.59111
1.68576
1.78188
1.88371
1.99241
2.07715
2.44073
142.89
1552.22
2194.67
1912.96
1.04182
1.09107
1.14596
1.20646
1.27254
1.34379
1.41968
1.49985
1.58416
1.67272
1.78239
1.87398
1.94739
2.10762
2.83147
3.30278
1459.57
1958.86
1507.49
1.06043
1.1084
1.16149
1.21934
1.28181
1.3488
1.42006
1.49519
1.57393
1.65481
1.75876
1.86783
1.89498
1.84379
1.75999
84.6048
1625.56
1260.46
390.235
1.07289
1.12001
1.17163
1.2273
1.28681
1.35021
1.41738
1.48774
1.55995
1.633
1.70576
1.81853
1.90254
1.79774
1.97667
294.678
1707.58
640.01
182.558
1.07976
1.12649
1.17712
1.23114
1.28834
1.34875
1.41206
1.47704
1.54243
1.60763
1.67
1.76292
1.85255
1.80637
1.93668
422.586
1786.36
215.385
187.592
1.08199
1.12863
1.1787
1.23166
1.28719
1.34512
1.40473
1.46368
1.52078
1.57672
1.63072
1.68405
1.7942
1.76823
1.75096
407.229
1836.5
211.363
198.559
1.08027
1.12715
1.17713
1.22963
1.28418
1.34008
1.3965
1.4493
1.49751
1.54338
1.58907
1.63395
1.72388
1.72864
1.65047
228.211
1653.99
403.201
207.894
1.07511
1.12262
1.17302
1.22575
1.2802
1.33484
1.38828
1.43581
1.47545
1.51289
1.54895
1.58512
1.63445
1.72812
1.71673
87.0765
793.149
915.551
215.263
1.06684
1.11541
1.16692
1.22079
1.27607
1.33096
1.38242
1.42615
1.45987
1.48686
1.51226
1.53804
1.59109
1.69708
1.99897
2.72881
154.558
1056.8
219.16
1.05558
1.10565
1.15883
1.2146
1.27215
1.32958
1.383
1.42683
1.45734
1.475
1.48528
1.49545
1.55269
1.66871
1.89988
1.97523
102.779
1094.5
787.796
1.04131
1.09322
1.14865
1.20719
1.26841
1.33098
1.39112
1.43948
1.47447
1.48826
1.48132
1.47557
1.53715
1.69372
2.00054
2.28844
132.084
945.406
963.968
1.02378
1.07781
1.13595
1.19791
1.26404
1.3334
1.40409
1.46949
1.52121
1.54761
1.52668
1.50673
1.56972
1.75051
2.03019
2.35639
7.34164
341.141
996.912
1.0026
1.05883
1.11993
1.18572
1.25716
1.33565
1.42076
1.5112
1.59766
1.64034
1.62461
1.59797
1.65975
1.82763
2.0805
2.16981
3.10929
267.484
1023.08
0.977291
1.03556
1.09939
1.16878
1.24463
1.33205
1.43395
1.54689
1.65857
1.72713
1.72032
1.67937
1.7284
1.8962
1.98507
1.92023
2.30171
543.723
1065.37
0.947071
1.00708
1.07336
1.14597
1.22362
1.31635
1.42855
1.55311
1.67927
1.76424
1.75626
1.67697
1.70751
1.91353
2.08144
2.14823
2.12232
774.268
1122.99
0.911628
0.972786
1.04049
1.11463
1.19465
1.29028
1.40372
1.52276
1.64961
1.75487
1.76781
1.68835
1.69251
1.89383
2.15219
2.33686
7.73297
991.339
1195.01
0.870568
0.93231
1.00102
1.07664
1.15867
1.25606
1.37315
1.49711
1.69888
1.77157
1.79565
1.7985
1.75037
37.5267
72.9449
363.466
1119.45
1203.35
1258.8
0.823492
0.885072
0.95404
1.03059
1.11439
1.21302
1.33585
1.47149
1.64325
1.735
1.81127
1.93326
1.98045
272.869
553.198
566.878
596.61
1219.95
1280.01
0.770073
0.830507
0.898553
0.974714
1.05912
1.15672
1.27955
1.41887
1.53668
1.62968
1.77407
1.9778
5.7512
104.063
331.985
203.482
20.4499
957.033
1273.21
0.710101
0.768215
0.833927
0.90793
0.990002
1.08182
1.19318
1.32151
1.43106
1.51228
1.64147
39.2526
55.735
21.8773
12.5949
9.66268
9.80775
326.928
1255.97
0.643492
0.697944
0.759625
0.829441
0.906823
0.992539
1.08942
1.18731
1.25073
1.30479
12.9189
85.9008
89.9452
30.7512
8.35706
7.50206
7.41744
10.869
1209.14
0.570308
0.619659
0.675424
0.738687
0.807686
0.884318
0.966155
1.04632
1.09622
1.11284
12.467
91.0295
91.526
70.1352
7.66353
5.96159
6.13562
7.53489
1034.83
0.490727
0.533596
0.581727
0.63609
0.692666
0.756235
0.817702
0.865231
0.898352
0.899672
0.623041
63.5716
93.6684
63.6311
5.55546
4.54652
4.60158
13.1701
1064.16
0.405388
0.44065
0.479851
0.523654
0.565948
0.617578
0.649285
0.657131
0.662359
0.600725
9.21033
93.6148
62.6182
7.09306
3.23345
3.15609
3.27392
25.8958
1247.68
0.316212
0.3432
0.3727
0.404903
0.433327
0.475616
0.48096
0.496589
0.488661
0.207648
159.094
204.863
74.1193
2.42361
1.33027
1.67888
2.13028
59.291
1267.27
0.225541
0.244096
0.263791
0.284113
0.299879
0.327428
0.312518
0.342914
0.348316
0.291227
195.157
213.801
209.128
30.3005
-0.486072
0.159963
3.5569
778.403
1228.08
0.132755
0.142377
0.15173
0.15969
0.162842
0.16909
0.135445
0.120153
0.261948
0.134066
54.9688
218.343
1.62052
1.02018
-0.428939
-1.21175
38.6914
1171.29
1116.95
0.0313491
0.0301234
0.0264564
0.0184892
0.00267432
-0.0217997
-0.0895208
-0.148974
-0.290875
-1.34584
-0.993947
50.3216
0.108075
-0.986612
-1.17594
-2.20448
23.12
184.967
142.627
)
;

boundaryField
{
    leftWall
    {
        type            fixedFluxPressure;
        gradient        uniform 0;
        value           nonuniform List<scalar> 
50
(
837.735
836.8
834.847
832.181
829.231
826.49
824.556
823.918
825.588
837.469
842.166
282.953
1.07247
1.07382
1.05483
1.03123
1.01138
0.990624
0.969836
0.948687
0.927004
0.904769
0.881984
0.85867
0.834836
0.810474
0.785556
0.760044
0.733896
0.707068
0.679515
0.651203
0.622091
0.592148
0.561357
0.529712
0.497228
0.46398
0.429962
0.395167
0.359611
0.323344
0.286417
0.248836
0.210559
0.171679
0.132672
0.0939054
0.0550781
0.0143718
)
;
    }
    rightWall
    {
        type            fixedFluxPressure;
        gradient        uniform 0;
        value           nonuniform List<scalar> 
50
(
256.529
256.536
256.551
256.575
256.609
256.655
256.716
256.797
256.956
257.321
258.354
261.886
267.187
631.458
1389.2
2115.46
2577.73
2510.13
2257.81
2007.34
1890.13
1920.26
1912.96
1507.49
390.235
182.558
187.592
198.559
207.894
215.263
219.16
787.796
963.968
996.912
1023.08
1065.37
1122.99
1195.01
1258.8
1280.01
1273.21
1255.97
1209.14
1034.83
1064.16
1247.68
1267.27
1228.08
1116.95
142.627
)
;
    }
    lowerWall
    {
        type            fixedFluxPressure;
        gradient        uniform 0;
        value           nonuniform List<scalar> 
62
(
837.735
838.763
845.626
855.525
860.983
861.682
859.391
857.225
857.262
860.267
866.387
875.653
888.231
904.082
923.389
946.109
971.498
997.049
1016.6
1025.78
1004.34
997.381
1040.57
1040.57
1032.93
1032.97
1044.93
1063.03
1070.04
1057.64
1022.24
774.208
784.865
798.243
692.162
258.116
258.116
258.12
258.151
258.254
258.915
259.941
261.167
258.116
257.982
257.54
257.159
256.984
256.869
256.74
256.613
256.496
256.39
256.301
256.234
256.195
256.19
256.224
256.295
256.391
256.482
256.529
)
;
    }
    atmosphere
    {
        type            totalPressure;
        rho             rho;
        psi             none;
        gamma           1;
        p0              uniform 0;
        value           nonuniform List<scalar> 
46
(
-0.00768402
-0.00867611
-0.008466
-0.00862941
-0.00862628
-0.00865755
-0.00867052
-0.00867857
-0.00868561
-0.00869718
-0.00871943
-0.00876025
-0.0088284
-0.00893415
-0.00909162
-0.00931546
-0.00962574
-0.0100501
-0.0106249
-0.0114012
-0.0124509
-0.0138769
-0.0158244
-0.0177859
-0.0192899
-0.0210612
-0.023154
-0.0273221
-0.0356922
-0.0482709
-0.0677179
-0.0987186
-0.145134
-0.252141
-0.305723
-0.59205
-2.02454
-0.487209
0
-0.493655
-0.5072
-0.135111
-0.00635576
0
0
0
)
;
    }
    defaultFaces
    {
        type            empty;
    }
}


// ************************************************************************* //
