/*--------------------------------*- C++ -*----------------------------------*\
| =========                 |                                                 |
| \\      /  F ield         | OpenFOAM: The Open Source CFD Toolbox           |
|  \\    /   O peration     | Version:  2206                                  |
|   \\  /    A nd           | Website:  www.openfoam.com                      |
|    \\/     M anipulation  |                                                 |
\*---------------------------------------------------------------------------*/
FoamFile
{
    version     2.0;
    format      ascii;
    arch        "LSB;label=32;scalar=64";
    class       volScalarField;
    location    "0.475";
    object      alpha.water;
}
// * * * * * * * * * * * * * * * * * * * * * * * * * * * * * * * * * * * * * //

dimensions      [0 0 0 0 0 0 0];

internalField   nonuniform List<scalar> 
2268
(
0.999999
0.999999
0.999999
1
1
1
1
1
1
1
1
1
1
1
1
1
1
1
0.999205
0.891304
0.878171
0.940308
0.998645
0.999999
1
1
1
1
1
1
1
1
1
1
1
1
1
1
1
1
1
1
0.977653
0.878171
0.963822
0.998647
1
1
1
1
1
1
1
1
1
1
1
1
1
1
1
1
1
1
1
0.999905
0.878171
0.960464
0.99865
1
1
1
1
1
1
1
1
1
1
1
1
1
1
1
1
1
1
1
1
0.968112
0.988865
0.998867
1
1
1
1
1
1
1
1
1
1
1
1
1
1
1
1
1
1
1
1
1
0.999996
0.999629
1
1
1
1
1
1
1
1
1
1
1
1
1
1
1
1
1
1
1
1
1
0.999997
0.999566
1
1
1
1
1
1
1
1
1
1
1
1
1
1
1
1
1
1
1
1
1
1
0.999566
1
1
0.999998
0.999992
0.999992
0.999995
0.999997
0.999999
1
1
1
1
1
1
1
1
1
1
1
1
1
1
0.999566
9.37578e-16
4.3377e-16
5.05217e-16
1.63389e-14
3.65063e-13
1.74112e-11
5.16025e-10
1.03393e-08
1.89324e-07
2.39488e-06
2.38025e-05
0.000292618
0.00190941
0.0224948
0.0467464
0.0492605
0.0507164
0.0693376
0.0738959
1.2351e-14
5.79579e-15
6.92692e-15
4.68792e-13
1.73734e-11
5.2354e-10
1.03817e-08
1.65058e-07
1.99768e-06
2.83531e-05
0.000251559
0.00170375
0.00387314
0.0181203
0.0417108
0.0794036
0.177737
0.317773
0.407622
5.80035e-14
4.11404e-14
5.92481e-14
1.40895e-12
5.73148e-11
1.84633e-09
4.56208e-08
8.14456e-07
1.05794e-05
0.000243942
0.00318708
0.00677327
0.00537165
0.000664846
0.000458104
0.000765865
0.00985645
0.277431
0.668038
7.6074e-14
1.8199e-13
1.66632e-13
7.60444e-13
3.13407e-11
1.17321e-09
3.0039e-08
5.77474e-07
8.24883e-06
0.00031059
0.00558307
0.00670174
0.00140034
0.000458104
0.000297502
0.000147702
0.00064817
0.0307618
0.668471
1.31431e-13
2.6354e-13
2.7974e-13
4.1191e-13
1.03682e-11
3.95607e-10
1.03764e-08
2.25284e-07
4.77307e-06
0.000327265
0.00242676
0.00241148
0.000649559
0.00059061
0.000236331
2.99802e-05
3.2386e-06
0.0303696
0.667873
1.31352e-13
1.35192e-13
1.41995e-13
3.08567e-13
2.31713e-12
7.99213e-11
2.4143e-09
5.37463e-08
4.00724e-06
0.00014216
0.000124504
0.00010091
0.000104875
0.000242562
0.000545259
2.44764e-05
1.97657e-06
0.00992134
0.665272
1.3162e-13
1.31959e-13
1.32276e-13
1.50268e-13
6.64013e-13
1.51107e-11
3.70775e-10
8.39222e-09
4.53786e-07
2.67228e-06
3.23224e-05
5.55379e-05
5.16392e-05
4.23743e-05
0.000362773
6.8508e-05
6.0055e-07
0.00231259
0.637933
9.18002e-05
3.76688e-06
1.35831e-13
1.85872e-13
2.3177e-13
2.03656e-12
3.84568e-11
7.5958e-10
2.91415e-08
5.63787e-07
7.11673e-06
9.68609e-06
1.75842e-05
4.27349e-06
6.29625e-07
5.67009e-07
5.80012e-07
6.00524e-07
0.492711
1
0.999992
0.999904
0.997226
0.99854
0.999862
0.999915
0.999956
0.99998
0.999992
0.999997
0.999999
1
1
1
1
1
1
1
1
1
1
0.999796
0.990037
0.885966
0.668855
0.516743
0.558091
0.630865
0.679082
0.722126
0.775295
0.831516
0.883821
0.930207
0.968127
0.993322
1
1
1
1
1
1
1
1
1
0.391048
0.152167
3.09852e-09
3.33538e-07
0.0232557
0.0371654
0.0356983
0.0446365
0.0676693
0.102009
0.14789
0.209685
0.295867
0.419668
0.602093
0.832887
0.999512
1
1
1
1
1
1
3.07096e-18
3.07039e-18
-8.55492e-18
8.2899e-16
1.85092e-15
2.19444e-15
3.16378e-15
9.67367e-15
1.57762e-13
4.91436e-12
1.42652e-10
1.06764e-09
6.01876e-09
2.17662e-07
0.00554627
0.0473469
0.152195
0.378019
0.739528
0.99916
1
1
1
2.93254e-18
3.07155e-18
8.04182e-18
8.21083e-17
5.30374e-14
2.21962e-13
7.58649e-13
8.79479e-12
2.66275e-10
8.16557e-10
1.24126e-09
1.79599e-09
1.86113e-09
6.01876e-09
2.17662e-07
2.9551e-06
1.45995e-05
0.0119837
0.0558404
0.158374
0.371044
0.792345
0.999828
1.57138e-18
1.84411e-16
9.01236e-15
1.10269e-13
6.80776e-13
2.42035e-12
5.19378e-12
5.26478e-12
1.67575e-09
4.69676e-08
7.47254e-08
1.86113e-09
2.80902e-09
3.44685e-05
0.000199554
0.000255193
0.000337976
0.000205767
0.000205575
0.000205766
0.00914721
0.0604303
0.21096
2.20521e-19
7.2364e-17
1.11219e-14
2.44961e-13
1.74453e-12
5.46034e-12
9.33983e-12
7.37625e-12
1.55258e-09
9.47233e-08
1.44426e-07
3.63786e-09
4.64412e-09
6.5416e-05
0.000268781
0.000268781
0.000225651
0.000234849
0.000231834
0.000205575
0.000205895
0.000237324
0.000234906
1.59543e-35
1.05628e-17
7.30894e-15
2.59606e-13
2.08747e-12
6.60536e-12
1.07784e-11
1.01144e-11
7.85394e-10
8.24734e-08
1.44426e-07
6.95083e-08
1.17329e-07
3.39015e-05
1.49959e-07
4.64331e-05
3.51876e-11
8.15031e-05
0.000270961
0.000302778
0.000328465
0.000328465
0.000192343
-1.79355e-20
4.51975e-19
3.2032e-15
1.90746e-13
1.90484e-12
6.59814e-12
1.09704e-11
1.09769e-11
1.11309e-11
2.08245e-08
1.31386e-07
1.66721e-07
1.52922e-06
2.58309e-11
2.28393e-12
2.01079e-12
2.28393e-12
3.51876e-11
8.35359e-05
0.000110731
0.000309477
0.000328465
0.000280591
-2.76652e-18
2.21065e-20
1.07068e-15
9.93894e-14
1.16671e-12
4.73329e-12
1.06603e-11
1.77744e-11
8.77182e-10
2.88384e-09
6.01173e-09
1.29736e-07
4.58155e-07
1.34567e-08
2.01079e-12
1.77214e-12
2.01079e-12
1.58281e-05
0.000183218
0.000218167
0.000162311
0.000162527
0.000105754
-3.76942e-18
0
2.858e-16
3.94496e-14
4.97232e-13
2.40019e-12
8.16051e-12
9.95047e-12
5.85393e-10
3.62863e-09
3.4338e-09
1.37173e-09
1.36963e-09
1.37426e-09
6.98187e-11
1.62912e-12
1.77214e-12
2.56954e-05
0.000150067
0.00026025
0.000269692
0.000137498
0.000124155
-4.20301e-18
-8.49341e-18
5.68436e-17
1.18395e-14
1.60798e-13
9.08368e-13
5.26781e-12
8.12646e-12
1.17636e-10
4.0828e-09
3.93474e-09
3.06696e-09
3.03277e-09
2.38307e-09
1.87073e-11
1.27562e-12
1.48998e-12
4.47659e-11
3.52208e-09
0.000146816
0.000299204
0.000324471
0.000324521
-4.1142e-18
-1.21764e-17
8.48334e-18
2.71818e-15
4.05714e-14
2.79921e-13
3.12211e-12
8.74502e-12
1.83963e-11
2.34998e-09
3.75639e-09
4.87536e-09
4.87536e-09
1.03754e-09
1.27476e-12
1.27475e-12
1.27557e-12
1.54996e-12
4.63965e-12
1.58022e-10
7.54534e-06
0.000206121
0.000285606
-3.6336e-18
-1.12245e-17
0
4.95127e-16
8.23368e-15
7.76841e-14
1.72041e-12
8.37655e-12
9.44084e-12
3.68151e-11
7.48353e-10
4.37086e-09
3.04896e-09
9.17981e-11
1.37513e-12
1.30481e-12
1.71049e-12
1.71084e-12
1.76684e-12
3.54549e-12
5.62109e-12
2.02235e-11
1.16435e-05
-2.87255e-18
-8.93574e-18
-3.59498e-18
6.84932e-17
1.35095e-15
1.89734e-14
6.42421e-13
4.77863e-12
8.1371e-12
4.61212e-12
4.1959e-11
8.73723e-10
5.73816e-11
3.81228e-12
2.59851e-12
1.27216e-12
2.83998e-12
4.54693e-12
5.07837e-12
5.09174e-12
5.18713e-12
5.72209e-12
1.26079e-11
-2.01081e-18
-6.23554e-18
-6.70486e-18
6.51912e-18
1.74888e-16
4.11211e-15
1.60216e-13
1.61751e-12
4.24823e-12
4.50436e-12
9.36767e-13
5.44113e-13
5.41446e-13
7.75256e-13
1.30278e-12
2.75499e-13
1.53784e-13
1.5675e-12
8.27042e-12
1.54353e-11
1.85079e-11
1.85097e-11
1.86555e-11
-1.22982e-18
-3.74936e-18
-5.06145e-18
-3.96992e-36
1.69949e-17
7.9329e-16
3.21283e-14
3.5578e-13
1.14401e-12
1.65499e-12
1.68763e-12
8.21417e-13
5.42599e-13
3.8701e-13
1.89959e-13
4.96426e-14
1.6111e-14
4.20854e-14
2.54488e-13
2.28101e-12
1.29823e-11
3.13903e-11
4.75495e-11
-6.4535e-19
-1.91915e-18
-2.9979e-18
-3.96836e-19
1.09031e-18
1.33443e-16
5.28292e-15
5.60429e-14
2.10887e-13
4.39191e-13
6.65886e-13
5.35161e-13
1.63582e-13
2.94958e-14
6.72449e-15
2.42735e-15
1.83257e-15
8.47411e-15
6.07804e-14
4.08021e-13
2.49213e-12
1.13909e-11
3.67705e-11
-2.83653e-19
-8.18208e-19
-1.45044e-18
-3.49821e-19
3.9825e-20
1.8733e-17
7.27969e-16
7.46792e-15
3.31618e-14
8.26279e-14
1.09095e-13
9.08091e-14
3.88244e-14
7.33858e-15
6.29804e-16
1.03817e-16
1.64149e-16
1.3757e-15
1.46838e-14
1.16404e-13
7.20873e-13
5.08591e-12
3.63113e-11
-1.0115e-19
-2.81952e-19
-5.56318e-19
-1.49006e-19
8.66158e-22
2.11696e-18
8.76768e-17
9.5886e-16
4.72809e-15
1.20069e-14
1.42221e-14
1.21028e-14
6.11035e-15
1.40442e-15
9.70308e-17
1.99798e-18
1.15026e-17
2.44939e-16
3.74236e-15
3.82276e-14
2.68958e-13
1.84252e-12
1.67428e-11
-2.80232e-20
-7.52984e-20
-1.61575e-19
-4.33195e-20
1.34444e-24
1.82829e-19
9.35035e-18
1.21066e-16
5.83204e-16
1.48297e-15
1.76211e-15
1.43928e-15
7.56532e-16
1.92554e-16
1.37758e-17
-1.72713e-18
8.31016e-20
4.52489e-17
9.6288e-16
1.32217e-14
1.13917e-13
5.91361e-13
3.0103e-12
-5.65831e-21
-1.46429e-20
-3.3215e-20
-8.70007e-21
-2.19671e-22
1.06251e-20
7.86422e-19
1.31695e-17
6.46917e-17
1.46367e-16
1.72805e-16
1.4076e-16
6.57895e-17
1.0441e-17
-2.04038e-18
-3.71466e-18
-1.52538e-20
5.6398e-18
2.39581e-16
4.02597e-15
4.50424e-14
2.60705e-13
9.9442e-13
-7.46315e-22
-1.86578e-21
-4.37877e-21
-1.11398e-21
-1.34901e-22
3.30484e-22
4.32562e-20
9.97027e-19
5.21284e-18
1.05189e-17
1.29355e-17
1.06032e-17
4.27419e-18
-6.51339e-19
-3.40859e-18
-4.11407e-18
-1.80271e-18
7.75949e-19
5.88887e-17
1.15173e-15
1.53643e-14
1.02677e-13
4.44014e-13
-4.94472e-23
-1.21231e-22
-3.01892e-22
-7.44606e-23
-1.16243e-23
6.6982e-25
1.16193e-21
4.05875e-20
2.32286e-19
4.79176e-19
6.11802e-19
4.10382e-19
-1.85598e-19
-1.3674e-18
-2.80779e-18
-2.44568e-18
-1.13557e-18
1.1097e-19
1.38022e-17
3.07924e-16
4.80051e-15
3.57304e-14
1.70175e-13
-1.02158e-31
-5.72074e-30
-1.84867e-28
-3.25734e-27
-2.95847e-26
0
5.78138e-24
6.0284e-22
4.58207e-21
1.07046e-20
5.30601e-21
-4.16833e-20
-2.79443e-19
-8.45293e-19
-1.15838e-18
-8.95237e-19
-4.05345e-19
2.15979e-20
3.06257e-18
7.49823e-17
1.3519e-15
1.09175e-14
5.17027e-14
-4.94879e-32
-2.6082e-30
-8.90395e-29
-1.79594e-27
-2.60973e-26
-2.75943e-25
-1.96822e-24
-9.38411e-24
-5.79534e-23
-5.08033e-22
-4.27565e-21
-2.70926e-20
-1.12295e-19
-2.48871e-19
-2.96572e-19
-2.11418e-19
-9.04092e-20
5.15763e-21
6.41292e-19
1.63746e-17
3.35687e-16
2.9233e-15
1.3684e-14
-1.87097e-32
-9.10016e-31
-3.18906e-29
-6.55587e-28
-9.89623e-27
-1.15675e-25
-1.04197e-24
-7.27499e-24
-4.41036e-23
-2.6587e-22
-1.51851e-21
-6.97763e-21
-2.21089e-20
-4.23969e-20
-4.59025e-20
-3.03257e-20
-1.14917e-20
2.16338e-21
1.21672e-19
3.21991e-18
7.56927e-17
6.94707e-16
2.79204e-15
-5.18469e-33
-2.29205e-31
-8.21192e-30
-1.69078e-28
-2.55606e-27
-3.04473e-26
-2.88738e-25
-2.18756e-24
-1.35314e-23
-7.11648e-23
-3.22337e-22
-1.15592e-21
-2.95415e-21
-4.93735e-21
-4.6295e-21
-2.70926e-21
-7.32648e-22
6.65436e-22
1.98575e-20
6.00794e-19
1.86059e-17
1.48273e-16
1.48756e-16
-9.43935e-34
-3.74305e-32
-1.35962e-30
-2.73998e-29
-3.9999e-28
-4.6207e-27
-4.31423e-26
-3.25084e-25
-1.95853e-24
-9.36215e-24
-3.53909e-23
-1.04971e-22
-2.34352e-22
-3.46861e-22
-2.58116e-22
-1.19273e-22
4.08916e-26
9.84359e-23
2.86983e-21
1.19719e-19
4.56178e-18
2.91925e-17
1.85223e-17
-8.74527e-35
-3.06003e-33
-1.11379e-31
-2.11508e-30
-2.77089e-29
-2.76628e-28
-2.19385e-27
-1.42128e-26
-7.66042e-26
-3.46374e-25
-1.30613e-24
-3.96919e-24
-8.85469e-24
-1.1754e-23
-7.12937e-24
-2.31487e-24
7.2361e-25
1.42938e-23
3.57283e-22
1.91131e-20
8.43152e-19
5.58698e-18
3.64779e-18
-5.718e-37
-1.94766e-35
-7.64041e-34
-1.56872e-32
-2.26379e-31
-2.53927e-30
-2.30307e-29
-1.72977e-28
-1.08874e-27
-5.7333e-27
-2.46325e-26
-8.00394e-26
-1.61797e-25
-1.07891e-25
-3.97268e-26
1.69078e-26
5.42569e-26
1.32873e-24
3.72122e-23
2.41778e-21
1.34302e-19
1.01787e-18
6.98716e-19
-1.22938e-39
-4.82562e-38
-2.30022e-36
-5.66286e-35
-9.80792e-34
-1.32179e-32
-1.43968e-31
-1.2947e-30
-9.65311e-30
-5.86006e-29
-2.72969e-28
-8.42362e-28
-1.20027e-27
-6.16191e-28
-1.90272e-28
1.70383e-29
3.25218e-27
1.02061e-25
3.31001e-24
2.32913e-22
1.74729e-20
1.71281e-19
1.23759e-19
-2.17257e-42
-9.69156e-41
-5.52498e-39
-1.60272e-37
-3.28331e-36
-5.24209e-35
-6.73494e-34
-7.0558e-33
-5.95443e-32
-3.8333e-31
-1.63708e-30
-3.2813e-30
-1.55106e-30
-4.32391e-31
2.15948e-33
3.50704e-30
1.87922e-28
6.96013e-27
2.83765e-25
2.00575e-23
1.89621e-21
2.2498e-20
1.42006e-20
-1.28219e-45
-7.57497e-44
-5.75026e-42
-2.11607e-40
-5.41825e-39
-1.0556e-37
-1.60466e-36
-1.88726e-35
-1.60862e-34
-8.30379e-34
-1.41202e-33
-5.57435e-34
-1.31524e-34
2.71391e-40
2.05042e-34
1.79615e-31
1.02417e-29
4.89221e-28
2.41923e-26
1.64554e-24
1.68856e-22
2.18576e-21
1.24386e-21
-2.88359e-49
-2.3139e-47
-2.29822e-45
-1.03052e-43
-3.11288e-42
-6.74273e-41
-1.02285e-39
-9.67621e-39
-4.072e-38
-1.30728e-38
-5.92494e-39
-4.06609e-38
-8.45812e-39
-6.88685e-54
5.99494e-36
9.29922e-33
5.51014e-31
2.96091e-29
1.60977e-27
9.02911e-26
8.96398e-24
1.4875e-22
4.70564e-23
-1.33039e-54
-1.26446e-52
-1.15124e-50
-3.46494e-49
-3.73699e-48
-1.27644e-48
-1.01908e-46
-1.09508e-44
-8.0585e-43
-3.8582e-41
-1.06874e-39
-1.26062e-38
-4.14377e-39
-9.9293e-60
1.27418e-37
3.27021e-34
2.48518e-32
1.36153e-30
7.51041e-29
3.89626e-27
3.22531e-25
8.05137e-24
2.92793e-24
2.00739e-71
-4.41841e-61
-1.74993e-57
-1.12302e-54
-4.10097e-52
-9.52731e-50
-1.50887e-47
-1.6559e-45
-1.24127e-43
-6.03316e-42
-1.68645e-40
-1.98349e-39
-6.06828e-40
6.61954e-61
2.17987e-39
8.06213e-36
7.54422e-34
4.98169e-32
2.44866e-30
1.51172e-28
9.4173e-27
4.07474e-25
1.50503e-24
3.4104e-72
-9.22423e-63
-4.10848e-59
-2.4746e-56
-8.40426e-54
-1.81616e-51
-2.68586e-49
-2.74443e-47
-1.87553e-45
-7.78159e-44
-1.49512e-42
-3.48839e-43
-9.53414e-45
-9.0137e-46
1.47574e-41
1.20037e-37
1.65442e-35
1.10133e-33
7.51652e-32
5.81233e-30
2.61425e-28
1.34106e-26
2.33465e-25
2.82878e-75
-2.07706e-64
-1.21155e-60
-6.90484e-58
-2.02234e-55
-3.48141e-53
-3.77386e-51
-2.61317e-49
-1.17107e-47
-3.57533e-46
-6.88863e-45
-1.55892e-45
-1.32439e-44
-2.21515e-43
1.62655e-44
7.62053e-40
1.41061e-37
1.43756e-35
1.26858e-33
9.61601e-32
6.0738e-30
4.37859e-28
9.06408e-27
-1.48395e-81
-1.79478e-70
-5.79353e-65
-4.15149e-62
-1.32886e-59
-2.22549e-57
-1.94382e-55
-7.11263e-54
-1.77508e-53
-3.1542e-51
-4.25463e-49
-3.99272e-47
-2.35088e-45
-6.60609e-44
1.5016e-65
5.50888e-44
5.13434e-41
8.59234e-39
1.87307e-36
2.57535e-34
4.08151e-32
5.23447e-30
1.44299e-28
-1.9545e-82
-9.69919e-78
-4.58527e-73
-3.44227e-70
-5.99536e-68
-2.54528e-69
-2.4198e-67
-1.30165e-64
-5.07857e-62
-1.41603e-59
-2.69753e-57
-3.17775e-55
-1.77187e-53
-1.74816e-53
-1.90839e-70
1.20376e-51
1.19404e-48
4.62627e-45
1.69454e-42
6.19537e-40
5.29255e-37
8.12496e-35
1.4559e-47
0
0
-3.92064e-88
-8.05025e-84
-4.85625e-80
-1.60908e-76
-3.40503e-73
-4.8589e-70
-4.68318e-67
-2.92856e-64
-1.07325e-61
-1.74771e-59
-4.58708e-61
-6.687e-63
-7.20086e-65
2.28545e-68
2.1703e-62
8.49937e-60
-4.68856e-74
4.54321e-54
9.52161e-52
4.3882e-49
1.46743e-47
0.999998
0.980597
0.833057
0.267008
0.999998
1
0.961307
0.304476
1
1
0.896964
0.138042
1
1
0.886415
0.0901598
1
1
0.982329
0.171177
0.741177
0.999972
0.99972
0.572534
0.0779463
0.476393
0.985424
0.980588
8.56775e-05
0.0011185
0.266688
0.867806
8.01323e-05
2.89902e-05
2.06608e-05
0.113174
5.73064e-05
4.833e-05
1.97047e-05
1.29348e-05
7.7991e-05
7.18605e-05
0.000270518
0.000200565
0.000324167
0.00032274
0.00029788
5.92539e-05
0.000238633
0.000229313
2.87133e-05
3.69762e-09
2.36969e-05
7.23655e-06
3.69762e-09
3.69421e-09
2.09254e-11
1.19521e-10
4.21642e-09
4.25441e-09
1.88806e-11
8.40897e-11
4.37077e-09
5.05837e-09
2.77648e-10
1.76593e-09
3.83093e-09
4.53527e-09
1.17697e-10
3.21961e-10
5.91005e-10
7.886e-10
1.26142e-10
1.86288e-10
1.70521e-10
6.85634e-10
8.77581e-11
1.60542e-10
1.60588e-10
1.55124e-09
3.14801e-11
1.17329e-10
2.31015e-10
4.85449e-10
1.10751e-11
6.79444e-11
1.53772e-10
1.75146e-10
4.83049e-12
2.74217e-11
8.2007e-11
1.76763e-10
2.11879e-12
1.14359e-11
4.13032e-11
1.61078e-10
7.87191e-13
5.06833e-12
3.18868e-11
1.46641e-10
2.98881e-13
2.23953e-12
2.25118e-11
1.21208e-10
1.23653e-13
1.02507e-12
9.85273e-12
6.19683e-11
4.94524e-14
5.15211e-13
4.86243e-12
2.53783e-11
1.7587e-14
2.47877e-13
3.09273e-12
1.51027e-11
5.2631e-15
1.01828e-13
1.94812e-12
9.64134e-12
1.43552e-15
5.95027e-14
8.4735e-13
2.58994e-12
6.26364e-16
1.73502e-14
3.31899e-14
1.99921e-12
6.09773e-17
3.86326e-15
6.15274e-14
2.04904e-12
4.26682e-18
5.51235e-16
1.12478e-13
7.31397e-12
4.33635e-19
1.25581e-16
4.88874e-14
1.2709e-12
3.0513e-20
4.24388e-18
7.00467e-15
2.31476e-13
1.50868e-21
9.76346e-20
1.23742e-15
4.28519e-14
4.82844e-23
1.79648e-21
1.75453e-16
5.04707e-15
5.19875e-25
1.38187e-22
1.55719e-17
3.96432e-16
1.23283e-26
3.46121e-24
7.35068e-19
1.97588e-17
8.02929e-31
2.94218e-25
1.78836e-20
3.63552e-19
-2.96541e-47
-2.15812e-43
-8.32099e-39
-6.19703e-35
5.08186e-05
4.56043e-06
1.69644e-08
2.3177e-13
6.09771e-13
9.36584e-13
6.12095e-12
1.25406e-10
1.362e-08
7.35332e-08
7.23273e-07
1.05608e-06
1.99306e-06
9.35658e-07
5.59419e-07
5.5625e-07
5.67009e-07
5.7996e-07
0.499236
0.00130335
0.000107514
9.1887e-06
3.02574e-06
0.000479723
0.00218252
0.00036503
0.000152389
1.99192e-06
3.61055e-07
5.92119e-07
7.0998e-07
5.81904e-07
5.59419e-07
5.56162e-07
5.5687e-07
5.56486e-07
6.1058e-07
0.706304
0.00020952
2.62035e-05
2.15949e-05
3.35136e-06
0.000231419
0.00793093
0.0495026
3.44781e-06
3.5858e-06
5.92691e-07
7.16108e-05
3.27609e-05
7.14793e-07
5.81796e-07
5.59419e-07
5.56079e-07
5.59564e-07
1.12278e-06
0.826686
1.12228e-05
3.68025e-06
3.65589e-06
1.68533e-06
0.000135878
8.53009e-05
0.0781879
0.000187573
0.00171857
0.000249776
9.01916e-05
7.04893e-06
1.67807e-06
6.70241e-07
5.70182e-07
5.59564e-07
5.70322e-07
0.0431145
0.886298
1.9449e-06
1.77618e-06
1.65501e-06
1.63964e-06
1.68533e-06
1.90024e-06
0.0735261
0.00276883
0.00126697
0.237596
0.0334584
3.35741e-06
3.17162e-06
1.6856e-06
7.47581e-06
5.70312e-07
1.21342e-06
0.486116
0.922167
1.77618e-06
1.65501e-06
1.63926e-06
1.65501e-06
1.63882e-06
1.82886e-06
2.04377e-06
2.0189e-06
0.0718795
0.748651
0.529147
0.0150266
0.0545693
0.0287694
1.27444e-05
1.21439e-06
0.0461381
0.834025
0.924435
0.615878
0.188862
0.232595
0.393137
0.407153
0.223783
0.167212
0.215234
0.56188
0.926072
0.931982
0.923726
0.932211
0.751413
0.101444
0.0490003
0.556239
0.924455
0.924689
0.862818
0.840778
0.838078
0.843949
0.851679
0.860665
0.875756
0.904857
0.930922
0.931982
0.932156
0.932211
0.93221
0.932211
0.861157
0.827118
0.899688
0.924709
0.924723
0.346658
0.54915
0.714967
0.828119
0.841953
0.826307
0.80519
0.789003
0.762783
0.705664
0.649089
0.647457
0.692113
0.857183
0.923039
0.924523
0.924709
0.924723
0.924723
3.81705e-05
0.0251283
0.0862706
0.162875
0.190253
0.180278
0.160047
0.13262
0.0985957
0.0620195
0.039452
0.0402244
0.0521313
0.100977
0.226223
0.580791
0.924536
0.92471
0.924723
3.27695e-06
1.59497e-07
7.49165e-06
2.16698e-05
2.82861e-05
2.69793e-05
2.19918e-05
1.37969e-05
5.82507e-06
1.68499e-06
2.06016e-07
2.84655e-07
3.20827e-06
5.8881e-05
0.000715924
0.0802341
0.567197
0.924517
0.924683
2.59716e-06
6.33502e-09
5.31393e-08
2.1105e-07
3.3641e-07
3.80094e-07
3.32649e-07
2.27136e-07
1.60622e-07
2.07126e-07
2.08969e-07
2.07627e-07
2.83574e-07
3.20687e-06
5.8871e-05
0.0223404
0.624684
0.914564
0.825934
3.69421e-09
4.39482e-09
3.79094e-09
5.04115e-09
1.23783e-08
6.37823e-08
6.99323e-08
7.2741e-08
1.03362e-07
1.85883e-07
1.9377e-07
2.34707e-07
2.6749e-06
5.88461e-05
0.0130068
0.282577
0.868835
0.914029
0.81407
3.69018e-09
3.66689e-09
3.57943e-09
3.8016e-09
1.56956e-08
6.19492e-08
6.47208e-08
6.99323e-08
7.2741e-08
8.99354e-08
7.02892e-07
1.36912e-05
0.000199138
0.0630834
0.526113
0.851785
0.914327
0.914346
0.857366
4.09261e-09
3.6593e-09
3.57753e-09
3.57957e-09
3.96682e-09
8.42009e-07
1.7413e-06
2.06924e-07
9.50228e-08
1.80269e-07
2.61954e-06
5.25938e-05
0.00082503
0.342434
0.893011
0.914327
0.914346
0.914351
0.914346
5.0062e-09
3.98855e-09
3.57758e-09
3.57754e-09
3.74163e-09
1.05082e-06
2.37816e-06
2.0541e-06
1.70599e-07
2.0256e-07
7.60126e-07
1.42039e-05
0.000237321
0.0857702
0.679783
0.914337
0.91435
0.914346
0.914349
4.43712e-09
5.44691e-09
1.13843e-08
7.68772e-09
3.93084e-09
2.83313e-08
1.21942e-06
2.13473e-06
5.7431e-07
5.08275e-07
6.40911e-07
3.28445e-06
6.01178e-05
0.0262888
0.549115
0.899992
0.520262
0.323668
0.373206
6.37958e-09
2.82466e-08
4.62238e-08
3.75983e-08
3.95594e-09
3.95594e-09
1.25511e-07
1.16995e-06
4.3867e-07
7.4979e-07
7.6438e-07
1.86074e-06
4.41119e-05
0.0326552
0.551885
0.844728
0.271957
0.163048
0.159479
2.44631e-08
4.62238e-08
4.62238e-08
4.6033e-08
8.96839e-09
4.58044e-09
4.64194e-07
7.26963e-07
4.39965e-07
9.34968e-07
8.77791e-07
1.3114e-06
2.38813e-05
0.016743
0.50366
0.832683
0.59068
0.17349
0.159479
1.27385e-08
2.67271e-08
3.7013e-08
1.99058e-08
1.73436e-08
4.67201e-09
2.34301e-07
6.99551e-07
9.05959e-07
1.03478e-06
1.00153e-05
1.00612e-05
2.37617e-05
0.00735867
0.428343
0.817955
0.626423
0.193355
0.159479
1.76208e-10
1.76132e-10
1.77314e-10
1.80148e-10
1.08832e-08
1.62203e-07
7.30578e-08
2.88864e-07
5.42705e-07
3.6518e-07
3.80845e-05
2.74647e-05
3.29837e-05
0.00957527
0.235901
0.390872
0.391244
0.211146
0.216009
1.93634e-10
6.86776e-10
9.9217e-10
4.50215e-10
8.61995e-10
4.637e-07
2.4539e-07
8.48091e-08
6.38246e-08
6.18701e-08
3.13823e-05
2.7103e-05
9.00222e-05
0.00341872
0.00549619
0.0181113
0.16197
0.381929
0.381911
2.26825e-10
1.54799e-09
2.99484e-09
8.76623e-10
8.63962e-10
2.84828e-07
5.95267e-07
1.5234e-07
6.18701e-08
6.08246e-08
3.96616e-06
1.31646e-05
0.000120097
0.00231769
0.000317519
0.000185265
0.0120848
0.302544
0.381932
2.19505e-10
1.50964e-09
3.15437e-09
1.40175e-09
5.64013e-08
1.65063e-08
4.30099e-06
2.56888e-07
6.08156e-08
6.08246e-08
6.08246e-08
7.99503e-07
3.48911e-06
0.00229112
0.00105522
0.000176267
0.000177708
0.0107239
0.38191
1.69081e-10
5.09098e-10
2.70202e-09
5.5082e-09
1.38658e-07
2.19641e-08
5.95699e-06
5.70105e-07
6.08246e-08
6.07736e-08
6.08246e-08
9.36343e-08
2.42249e-07
0.00188549
0.000687702
0.000176275
0.000176271
0.00982382
0.36563
1.50056e-10
1.09809e-10
9.41781e-10
1.00159e-08
1.34979e-07
1.81893e-08
3.81999e-06
3.60222e-05
3.86779e-05
6.63515e-08
9.36343e-08
1.29409e-07
8.83698e-07
0.000726539
0.000463765
0.000176275
0.000177708
0.0229067
0.344986
1.03162e-10
1.0365e-10
2.15799e-10
3.77001e-09
2.57056e-08
1.79846e-08
7.9295e-06
5.28575e-05
5.32001e-05
4.48425e-05
1.43961e-05
4.15743e-05
1.61246e-06
8.79641e-05
0.000222204
0.000165903
0.000180802
0.0233191
0.342394
4.95171e-11
1.3795e-10
2.25678e-10
3.53857e-09
3.10962e-08
1.9928e-08
5.19877e-06
2.73318e-05
5.33881e-05
5.35048e-05
5.1371e-05
6.69435e-05
5.71959e-05
3.26441e-06
3.20585e-05
3.8856e-05
0.00024563
0.0146054
0.331502
1.62942e-11
3.42335e-09
1.09242e-07
3.26975e-08
1.43637e-07
8.83274e-08
6.99301e-07
1.93228e-06
5.35048e-05
5.35048e-05
2.71973e-05
6.69435e-05
6.69435e-05
2.09126e-06
3.23141e-06
0.0105801
0.018897
0.00417189
0.310627
2.1505e-11
7.02468e-10
4.98909e-07
2.72192e-05
9.2615e-05
8.86324e-05
3.88509e-06
1.38134e-06
3.08472e-05
5.34789e-05
2.67915e-05
4.06795e-05
6.65001e-05
1.87471e-06
2.03651e-06
0.0375177
0.0358974
0.00246114
0.289973
6.07656e-11
3.2393e-09
2.90398e-07
0.000125123
0.000236245
0.000236084
7.57142e-05
1.38134e-06
3.61548e-06
4.14176e-05
3.01999e-05
1.55702e-05
2.25814e-05
1.34359e-06
0.0285759
0.0424051
0.00927064
0.00232656
0.263867
6.75764e-11
3.72465e-09
6.68043e-07
0.000127346
0.000235895
0.000236253
0.000235744
7.95056e-06
3.40189e-07
6.52989e-06
3.50038e-05
1.50404e-05
5.26136e-07
1.0183e-06
0.0436371
0.0431488
0.0030474
0.0023205
0.227742
4.65969e-12
1.45494e-11
1.01509e-09
4.36748e-06
0.00010996
0.000235744
0.000235713
5.7393e-05
2.99858e-07
5.13705e-07
3.49822e-05
1.70377e-05
2.64876e-07
0.00256558
0.0450441
0.0378989
0.00289233
0.00232071
0.170691
4.68857e-11
3.49035e-14
-1.49292e-13
3.45192e-11
1.84917e-09
5.87824e-05
0.000164369
1.41831e-05
2.44246e-07
4.60138e-07
2.99191e-05
8.09819e-06
1.43971e-07
0.0049512
0.0456632
0.0386918
0.00301175
0.0023205
0.171669
3.68669e-12
3.31145e-14
-4.47808e-17
1.51665e-13
3.46948e-11
1.85046e-09
4.48071e-08
1.63548e-05
2.12709e-07
4.32563e-07
2.06454e-06
3.62763e-07
1.23387e-07
0.0105342
0.0462204
0.0421375
0.00366225
0.00232071
0.212136
1.19906e-13
1.32978e-14
-9.3637e-14
-1.1498e-17
1.65507e-11
3.37156e-09
4.87485e-06
1.78094e-05
2.06332e-07
1.91004e-07
6.97694e-08
1.15839e-07
1.18001e-07
0.0183503
0.0467755
0.0470009
0.00514621
0.0023351
0.223138
3.66155e-14
1.92334e-14
2.72428e-15
-6.48105e-14
-1.06377e-16
1.02122e-09
4.15323e-06
1.79318e-05
1.26626e-05
6.97694e-08
5.23217e-08
1.05335e-07
1.09971e-07
0.00540398
0.046397
0.0507987
0.00634855
0.00244741
0.223003
3.89694e-15
1.5795e-15
9.71695e-17
-7.13668e-15
-3.20436e-14
4.01391e-12
3.3143e-10
4.15632e-06
1.27178e-05
1.88759e-06
4.78194e-08
1.16498e-07
1.17212e-07
1.23526e-07
0.0446556
0.0559378
0.0117631
0.00245111
0.164277
2.75993e-16
6.62889e-17
-5.45177e-17
-4.0589e-16
-4.27821e-15
2.68276e-14
2.05694e-12
9.53588e-09
6.90817e-07
1.29702e-06
4.64388e-08
2.4564e-07
1.23526e-07
3.16431e-07
0.0499392
0.0559378
0.0287185
0.00248253
0.0763421
1.03e-17
1.33857e-18
-4.36878e-17
-4.77269e-17
-4.60217e-19
-9.87639e-17
5.96359e-15
1.10942e-12
6.55407e-11
8.86039e-09
3.51052e-10
7.98711e-05
3.16431e-07
0.00252955
0.0126638
0.0559378
0.0363636
0.0126557
0.149288
1.09603e-19
2.17441e-21
-7.05957e-19
-1.20109e-18
-3.71146e-17
-3.20224e-16
1.15267e-16
3.42521e-15
4.86913e-13
3.72607e-12
3.54396e-10
8.13692e-05
3.79471e-05
6.23943e-10
2.95266e-11
0.0146554
0.0277449
0.0411161
0.149947
-1.7699e-31
-3.88384e-27
-8.14699e-24
-4.24514e-22
-1.40364e-19
-1.76387e-17
-9.07333e-16
7.7921e-18
4.09908e-15
5.67684e-13
2.97671e-12
7.33673e-07
-7.39404e-30
1.8467e-30
2.23538e-36
2.66417e-28
0.000285653
0.000708939
0.100624
)
;

boundaryField
{
    leftWall
    {
        type            zeroGradient;
    }
    rightWall
    {
        type            zeroGradient;
    }
    lowerWall
    {
        type            zeroGradient;
    }
    atmosphere
    {
        type            inletOutlet;
        inletValue      uniform 0;
        value           nonuniform List<scalar> 
46
(
0
0
0
0
0
0
0
0
0
0
0
0
0
0
0
0
0
0
0
0
0
0
0
0
0
0
0
0
0
0
0
0
0
0
7.7921e-18
4.09908e-15
5.67684e-13
2.97671e-12
0
0
0
0
0
0.000285653
0.000708939
0.100624
)
;
    }
    defaultFaces
    {
        type            empty;
    }
}


// ************************************************************************* //
