/*--------------------------------*- C++ -*----------------------------------*\
| =========                 |                                                 |
| \\      /  F ield         | OpenFOAM: The Open Source CFD Toolbox           |
|  \\    /   O peration     | Version:  2206                                  |
|   \\  /    A nd           | Website:  www.openfoam.com                      |
|    \\/     M anipulation  |                                                 |
\*---------------------------------------------------------------------------*/
FoamFile
{
    version     2.0;
    format      ascii;
    arch        "LSB;label=32;scalar=64";
    class       surfaceScalarField;
    location    "0.475";
    object      alphaPhi0.water;
}
// * * * * * * * * * * * * * * * * * * * * * * * * * * * * * * * * * * * * * //

dimensions      [0 3 -1 0 0 0 0];

oriented        oriented;

internalField   nonuniform List<scalar> 
4432
(
-3.87179e-06
3.87179e-06
-4.88296e-06
1.01116e-06
-2.13356e-06
-2.7494e-06
2.87148e-06
-5.00504e-06
8.85192e-06
-5.98044e-06
1.45824e-05
-5.73045e-06
1.93031e-05
-4.72069e-06
2.27762e-05
-3.47318e-06
2.50994e-05
-2.32314e-06
2.64907e-05
-1.39129e-06
2.71588e-05
-6.68158e-07
2.72294e-05
-7.05355e-08
2.66967e-05
5.327e-07
2.542e-05
1.2767e-06
2.31059e-05
2.31409e-06
1.92731e-05
3.83273e-06
1.33816e-05
5.89155e-06
5.565e-06
7.81658e-06
-1.66484e-06
7.32259e-06
-7.33179e-06
6.19578e-06
-1.55429e-05
7.30928e-06
-1.61077e-05
-4.87597e-07
-1.611e-05
-4.0854e-06
7.9572e-06
-4.56314e-06
1.4889e-06
-1.70146e-06
-5.61109e-06
3.30743e-06
-1.00139e-05
9.23034e-06
-1.19033e-05
1.48846e-05
-1.13847e-05
1.95197e-05
-9.35579e-06
2.29174e-05
-6.87088e-06
2.51984e-05
-4.60406e-06
2.65933e-05
-2.78627e-06
2.73211e-05
-1.3959e-06
2.75796e-05
-3.2911e-07
2.75387e-05
5.73677e-07
2.73279e-05
1.48746e-06
2.69592e-05
2.68283e-06
2.62151e-05
4.57676e-06
2.43297e-05
7.777e-06
1.96761e-05
1.24701e-05
1.07776e-05
1.62211e-05
-1.28823e-06
1.86687e-05
-1.01224e-05
1.52418e-05
-9.32032e-06
-1.5929e-06
-2.54321e-05
-3.57551e-06
1.15327e-05
-3.82158e-06
1.73497e-06
-9.22672e-07
-8.51e-06
3.92357e-06
-1.48602e-05
9.66849e-06
-1.76483e-05
1.51376e-05
-1.68538e-05
1.95637e-05
-1.37819e-05
2.27617e-05
-1.00689e-05
2.49011e-05
-6.74356e-06
2.62376e-05
-4.12272e-06
2.69836e-05
-2.14192e-06
2.72755e-05
-6.20989e-07
2.71986e-05
6.50528e-07
2.67961e-05
1.88998e-06
2.6145e-05
3.33391e-06
2.54304e-05
5.29144e-06
2.49533e-05
8.25407e-06
2.41944e-05
1.3229e-05
2.0673e-05
1.97425e-05
1.28001e-05
2.65559e-05
2.9068e-06
2.42333e-05
2.72063e-07
1.30084e-06
-2.51613e-05
-2.83559e-06
1.43683e-05
-2.73542e-06
1.6348e-06
8.30571e-08
-1.13285e-05
4.58104e-06
-1.93582e-05
1.00608e-05
-2.3128e-05
1.53176e-05
-2.21107e-05
1.95064e-05
-1.79706e-05
2.24696e-05
-1.30321e-05
2.44472e-05
-8.72113e-06
2.57298e-05
-5.4053e-06
2.65217e-05
-2.93383e-06
2.69373e-05
-1.03665e-06
2.70282e-05
5.59617e-07
2.68055e-05
2.11272e-06
2.62636e-05
3.87583e-06
2.5457e-05
6.09799e-06
2.46766e-05
9.03455e-06
2.459e-05
1.33156e-05
2.47553e-05
1.95772e-05
2.32507e-05
2.80604e-05
1.8313e-05
3.13403e-05
1.00001e-05
1.02234e-05
-1.51683e-05
-1.86394e-06
1.62322e-05
-1.25039e-06
1.02125e-06
1.25171e-06
-1.38306e-05
5.34392e-06
-2.34504e-05
1.04542e-05
-2.82382e-05
1.54237e-05
-2.70803e-05
1.93276e-05
-2.18745e-05
2.20398e-05
-1.57444e-05
2.38689e-05
-1.05502e-05
2.51292e-05
-6.66557e-06
2.6006e-05
-3.81063e-06
2.65817e-05
-1.61232e-06
2.68777e-05
2.63551e-07
2.6892e-05
2.09851e-06
2.66117e-05
4.15606e-06
2.60636e-05
6.64616e-06
2.53375e-05
9.76059e-06
2.49093e-05
1.37438e-05
2.56335e-05
1.8853e-05
2.72997e-05
2.63943e-05
2.6394e-05
3.2246e-05
1.66687e-05
1.99488e-05
1.49191e-06
-5.99162e-07
1.68314e-05
8.40377e-07
-4.18289e-07
3.2351e-06
-1.62253e-05
6.94806e-06
-2.71633e-05
1.14753e-05
-3.27655e-05
1.58309e-05
-3.14358e-05
1.92037e-05
-2.52473e-05
2.15517e-05
-1.80924e-05
2.32205e-05
-1.2219e-05
2.44987e-05
-7.94376e-06
2.5515e-05
-4.8269e-06
2.62976e-05
-2.39494e-06
2.6833e-05
-2.71856e-07
2.7084e-05
1.8475e-06
2.70365e-05
4.20355e-06
2.67405e-05
6.94218e-06
2.62951e-05
1.0206e-05
2.58487e-05
1.41902e-05
2.5991e-05
1.87107e-05
2.77497e-05
2.46355e-05
2.83968e-05
3.15989e-05
1.97657e-05
2.85801e-05
2.12488e-05
1.22062e-06
1.56108e-05
3.80163e-06
-2.99931e-06
6.92365e-06
-1.93473e-05
1.04955e-05
-3.07352e-05
1.40258e-05
-3.62958e-05
1.71321e-05
-3.45421e-05
1.95332e-05
-2.76484e-05
2.1303e-05
-1.98622e-05
2.27199e-05
-1.3636e-05
2.39782e-05
-9.20202e-06
2.5122e-05
-5.97074e-06
2.61142e-05
-3.38715e-06
2.69042e-05
-1.06176e-06
2.74215e-05
1.33018e-06
2.76021e-05
4.02294e-06
2.75042e-05
7.04009e-06
2.72565e-05
1.04536e-05
2.69851e-05
1.44616e-05
2.67958e-05
1.89e-05
2.76087e-05
2.38227e-05
2.82578e-05
3.09498e-05
2.20355e-05
3.48024e-05
4.32754e-05
3.35347e-06
1.22573e-05
8.02724e-06
-7.67308e-06
1.2835e-05
-2.41551e-05
1.62456e-05
-3.41453e-05
1.80895e-05
-3.81394e-05
1.92875e-05
-3.57401e-05
2.0441e-05
-2.88018e-05
2.16161e-05
-2.10373e-05
2.28068e-05
-1.48267e-05
2.40137e-05
-1.04089e-05
2.51901e-05
-7.14712e-06
2.62593e-05
-4.45642e-06
2.71458e-05
-1.94825e-06
2.78306e-05
6.45448e-07
2.82088e-05
3.64471e-06
2.83323e-05
6.91655e-06
2.82735e-05
1.05125e-05
2.81594e-05
1.45757e-05
2.80241e-05
1.90353e-05
2.8208e-05
2.36388e-05
2.82203e-05
3.09374e-05
2.3297e-05
3.97257e-05
6.65635e-05
-1.3546e-22
2.92799e-22
-1.98194e-20
9.71029e-22
-1.01654e-19
2.31388e-20
-1.1613e-17
4.21283e-18
-1.03019e-15
8.93308e-16
-6.34387e-14
5.56489e-14
-1.75956e-12
1.52245e-12
-2.59187e-11
2.1131e-11
-6.27457e-11
-2.38951e-11
-6.41963e-10
-9.18021e-11
-7.42217e-08
6.81736e-08
-8.07978e-07
6.5524e-07
-2.55446e-06
1.28352e-06
-8.17948e-06
6.50297e-07
-1.23087e-05
-4.03599e-06
-1.81643e-05
-5.49276e-06
-1.93995e-05
-8.79859e-06
-1.49564e-05
-2.53825e-05
-2.98473e-05
-4.47032e-20
1.1169e-19
-2.28822e-19
1.60585e-19
-1.14031e-17
1.04041e-17
-9.06855e-16
6.87315e-16
-4.10997e-14
3.4305e-14
-1.27482e-12
1.11048e-12
-2.90357e-11
2.629e-11
-4.85511e-10
4.35781e-10
-5.97427e-09
5.01322e-09
-5.9473e-08
4.44503e-08
-7.30346e-07
6.89856e-07
-2.35894e-06
1.67338e-06
-2.07353e-06
7.13743e-07
-4.44478e-06
-7.94267e-07
-3.75372e-06
-1.85981e-06
-4.77115e-06
-3.80807e-06
-1.63589e-05
-1.33413e-05
-2.4435e-05
-8.72097e-05
-0.000158972
-2.85541e-19
7.74248e-19
-9.28102e-19
1.16555e-18
-2.73801e-17
2.39631e-17
-1.61014e-15
1.48019e-15
-6.77437e-14
6.86968e-14
-2.19087e-12
2.25018e-12
-5.60556e-11
5.67917e-11
-1.12031e-09
1.10457e-09
-1.65688e-08
1.56595e-08
-2.49577e-07
1.20568e-07
-2.99379e-06
1.83764e-06
-3.39423e-06
2.29008e-06
-7.37293e-07
1.22424e-07
-3.76463e-07
-1.87702e-07
-1.97151e-06
-2.26147e-07
-5.18371e-06
-5.3634e-07
-6.43495e-06
-2.37805e-06
-3.01222e-05
-5.00063e-05
-0.000188415
-5.68095e-19
1.37187e-18
-1.79997e-18
4.09556e-18
-1.2379e-17
1.38785e-17
3.23692e-16
7.68691e-16
1.02107e-14
4.04559e-14
2.5498e-13
1.33686e-12
2.68953e-12
3.79207e-11
-7.11117e-11
8.75758e-10
-2.54809e-09
1.40542e-08
-2.18657e-07
1.19003e-07
-1.71477e-06
7.86797e-07
-1.17108e-06
9.4276e-07
-2.61355e-07
-4.68232e-09
-1.78972e-07
-1.88881e-07
-2.39525e-07
-1.17138e-07
-6.23612e-07
-1.10721e-07
-2.15727e-06
-8.11838e-07
-2.35285e-05
-2.50682e-05
-0.000211604
-5.11814e-19
2.3445e-18
-1.71875e-18
5.60429e-18
-6.65524e-18
8.94253e-18
4.85434e-16
1.84868e-16
2.21982e-14
1.19012e-14
7.5808e-13
3.51466e-13
2.29024e-11
9.3503e-12
5.67673e-10
2.00311e-10
8.78622e-09
2.95585e-09
-1.49432e-07
8.98045e-08
-3.8097e-07
1.28768e-07
-1.61629e-07
-2.61413e-08
-1.24864e-07
-5.20178e-10
-1.03547e-07
-1.41707e-07
-2.86048e-08
-1.20476e-07
-8.24458e-08
-4.2302e-08
-8.92374e-07
-1.06122e-09
-1.67714e-05
-1.13853e-05
-0.000227567
-1.84763e-19
2.93269e-18
-6.18196e-19
4.9094e-18
-1.8867e-18
7.09342e-18
-2.62313e-18
4.66442e-17
6.90317e-15
2.08844e-15
2.09375e-13
5.66519e-14
6.02529e-12
1.17727e-12
1.32355e-10
2.81157e-11
-2.41755e-10
4.92212e-10
-5.77103e-09
9.05822e-09
9.80881e-09
5.13536e-08
1.04437e-08
8.17351e-09
3.64034e-10
-5.39634e-10
-1.12783e-08
-3.54023e-08
-1.93943e-09
-7.09174e-08
1.2588e-10
-2.41103e-08
1.05522e-09
-1.39848e-09
-9.15556e-06
-1.92526e-06
-0.000234981
-3.06679e-20
3.30599e-18
-2.55762e-19
5.4227e-18
-3.03779e-18
9.97053e-18
-1.30635e-17
3.08435e-17
7.844e-16
5.08461e-16
2.85033e-14
9.61376e-15
6.32479e-13
1.67848e-13
8.58965e-12
1.2423e-11
1.85256e-12
1.63676e-10
4.82658e-09
2.79389e-09
2.35462e-08
1.54537e-08
2.17084e-08
2.18593e-09
9.31043e-09
4.37396e-10
6.87957e-09
-3.0613e-09
1.66362e-08
-1.37108e-09
4.0925e-09
-3.21404e-10
2.96231e-09
-2.27297e-10
-1.85778e-06
-4.3314e-09
-0.000222685
1.57893e-09
2.59147e-09
1.4844e-11
4.63099e-09
-8.18602e-19
1.4844e-11
-2.57498e-17
2.0331e-17
-1.43505e-16
3.76082e-16
9.58934e-16
4.76505e-15
3.4177e-15
1.19025e-13
1.11781e-12
1.06718e-11
9.88603e-11
4.90193e-11
1.81192e-09
7.60014e-10
8.66296e-09
5.02419e-09
7.28742e-09
6.9597e-10
3.41536e-09
-2.08256e-10
1.36566e-09
-2.96426e-10
2.09001e-10
-2.17818e-10
5.49562e-11
-1.66493e-10
8.13714e-11
-2.1661e-10
1.65923e-08
-2.08014e-08
-0.000196976
1.51464e-05
-2.88909e-06
3.48881e-05
-2.74137e-05
4.96382e-05
-3.89008e-05
5.27404e-05
-3.5651e-05
4.9055e-05
-3.34233e-05
4.5329e-05
-3.20095e-05
4.46832e-05
-2.81527e-05
4.66559e-05
-2.30081e-05
4.98849e-05
-1.80548e-05
5.34006e-05
-1.39242e-05
5.66181e-05
-1.03646e-05
5.92334e-05
-7.07169e-06
6.12506e-05
-3.96541e-06
6.21679e-05
-2.71759e-07
6.25408e-05
3.27181e-06
6.27422e-05
6.71518e-06
6.29166e-05
1.03381e-05
6.30557e-05
1.44366e-05
6.36008e-05
1.84902e-05
6.49082e-05
2.23313e-05
6.82717e-05
2.75739e-05
7.67199e-05
3.12775e-05
4.94442e-05
9.38352e-05
2.4632e-05
-2.37635e-05
4.26925e-05
-3.05718e-05
3.6734e-05
-6.58961e-06
3.17552e-05
-4.49574e-07
2.94965e-05
-5.51619e-06
2.71553e-05
-7.01934e-06
2.68458e-05
-7.76127e-06
3.05484e-05
-8.37287e-06
3.74057e-05
-8.91262e-06
4.56057e-05
-9.11569e-06
5.37149e-05
-8.6823e-06
6.06138e-05
-7.36762e-06
6.53468e-05
-5.04355e-06
6.78414e-05
-1.72518e-06
6.83506e-05
2.76265e-06
6.81366e-05
6.92916e-06
6.7928e-05
1.05467e-05
6.7552e-05
1.48126e-05
6.83855e-05
1.76567e-05
7.11841e-05
1.95327e-05
7.66557e-05
2.21024e-05
8.61714e-05
2.17618e-05
3.03139e-05
0.000105302
1.09942e-05
-2.89981e-22
5.48685e-06
-8.40467e-14
9.93276e-08
-1.14664e-11
-3.50246e-07
1.15504e-11
-3.28416e-08
-7.06991e-19
-4.60326e-08
-3.65569e-18
-1.37848e-07
-2.24815e-17
-6.91173e-08
-5.67652e-16
5.55586e-07
-1.75029e-14
2.23634e-06
-5.05864e-13
5.4735e-06
-1.78523e-11
1.10982e-05
-5.52025e-10
2.05181e-05
-1.43383e-08
3.51751e-05
-3.05752e-07
5.42342e-05
-1.21544e-06
7.03551e-05
1.07189e-06
7.2818e-05
8.52647e-06
6.93554e-05
1.82751e-05
6.85261e-05
1.84861e-05
7.08196e-05
1.72393e-05
7.50218e-05
1.79001e-05
8.06883e-05
1.60954e-05
1.65314e-05
9.44708e-05
1.22472e-23
-3.03415e-22
-8.40467e-14
-1.91107e-20
-1.15504e-11
-2.55251e-19
-2.36547e-20
-2.49257e-18
-8.22768e-20
-1.5141e-18
-3.4566e-19
-4.88879e-18
-8.18196e-18
-1.61271e-17
-3.20884e-16
-2.56673e-16
-1.15229e-14
-6.31782e-15
-4.88965e-13
-2.88225e-14
-1.82321e-11
-1.14046e-13
-5.70278e-10
-3.14193e-14
-1.48965e-08
-1.20631e-11
-3.19941e-07
-7.02111e-10
-1.05506e-07
-1.22428e-08
3.68541e-06
-4.24209e-08
1.6609e-05
-3.06971e-07
4.08786e-05
6.04877e-08
6.81008e-05
2.98196e-06
7.67449e-05
9.36747e-06
7.91058e-05
1.55392e-05
8.14557e-05
1.37455e-05
1.19229e-05
8.60641e-05
-1.81818e-22
-1.40084e-22
-6.1196e-21
-1.31752e-20
-3.70261e-20
-2.22989e-19
-6.47462e-19
-1.82816e-18
-1.36543e-18
-6.68254e-18
-3.86265e-18
-2.28909e-17
-1.63796e-17
-5.63764e-17
-1.31169e-15
-2.70888e-16
-1.44569e-14
-3.57216e-14
-2.85698e-14
-1.47153e-13
-3.45688e-14
-2.49415e-13
-1.39679e-13
-2.02185e-14
-1.22527e-11
-4.54018e-14
-2.47362e-10
-4.67037e-10
-1.52304e-09
-1.09622e-08
-2.90466e-08
-1.48881e-08
-3.21125e-07
-1.52501e-08
-2.66418e-08
-2.68094e-08
4.39902e-06
-1.46194e-08
1.77216e-05
-1.69812e-09
4.4388e-05
2.07187e-08
7.82362e-05
6.79761e-07
5.72056e-06
8.47528e-05
-1.59264e-22
-2.21807e-23
-2.02179e-20
-7.1009e-21
-3.63379e-19
-3.50208e-19
-2.62518e-18
-5.00619e-18
-1.74259e-17
-3.05328e-17
-5.62866e-17
-8.67182e-17
-7.35606e-17
-1.4164e-16
-5.86586e-17
-3.99133e-16
-2.64918e-13
-3.74255e-14
-1.24409e-12
-1.41663e-12
3.36376e-13
-2.2257e-12
2.55077e-13
-3.42922e-14
-4.63885e-13
5.82132e-13
-1.15984e-09
-6.60145e-10
-1.54764e-09
-1.17344e-08
-6.91246e-10
-1.38225e-08
6.5229e-09
-2.43894e-08
6.45421e-09
-2.71071e-08
7.65369e-09
-1.61735e-08
3.12638e-09
2.46283e-09
1.69361e-07
-4.61405e-09
5.39754e-06
-7.9444e-08
-9.1303e-07
2.55314e-05
-1.22486e-23
-2.35385e-24
-7.7103e-21
-1.91564e-21
-5.55614e-19
-2.84938e-19
-7.61474e-18
-5.98624e-18
-4.05635e-17
-4.24164e-17
-9.32247e-17
-1.20581e-16
-1.12125e-16
-1.71928e-16
-3.49914e-16
-2.56646e-16
-3.33428e-13
-2.64541e-14
-2.18938e-12
-2.15348e-12
-1.85362e-13
-2.97723e-12
-1.03662e-13
-2.00994e-13
1.26683e-12
-8.35549e-13
2.14207e-10
-1.21582e-09
1.05618e-09
-4.47918e-10
1.89538e-09
-2.53322e-09
4.36884e-09
-5.30082e-10
6.96045e-09
-5.53688e-09
1.1489e-08
-2.14976e-08
1.41964e-08
-5.8e-10
1.26082e-08
-1.57441e-09
-5.94288e-08
-9.9835e-10
-5.15024e-08
-8.93889e-07
-2.56611e-24
2.12257e-25
-2.2667e-21
-4.02772e-22
-3.66909e-19
-1.40308e-19
-7.38356e-18
-5.32314e-18
-4.08284e-17
-4.19625e-17
-8.79262e-17
-1.20654e-16
-9.87521e-17
-1.74918e-16
-2.31316e-16
-1.65856e-16
-1.5653e-13
-9.50128e-16
-1.9748e-12
-1.10959e-12
-9.10109e-13
-2.78944e-12
1.90647e-13
-2.90203e-12
4.58924e-11
-2.76945e-11
5.10911e-10
-1.17465e-11
5.64136e-12
-8.25062e-14
5.62734e-10
-8.45038e-16
3.27464e-11
-8.6514e-14
5.76561e-09
-7.83599e-10
1.85594e-08
-1.37909e-08
4.20559e-08
-9.76021e-09
3.99217e-08
-9.26165e-10
3.19839e-08
9.20962e-09
6.69542e-09
1.65808e-08
-4.48289e-23
2.31319e-23
-4.32388e-22
-8.39786e-23
-1.54588e-19
-4.94199e-20
-4.6953e-18
-3.10009e-18
-3.06501e-17
-3.12668e-17
-7.25694e-17
-1.07645e-16
-6.72874e-17
-1.80607e-16
3.26998e-17
-2.74891e-16
1.29896e-14
-1.39046e-14
-3.59268e-13
-1.58276e-13
8.12262e-14
-1.15043e-12
-2.34533e-12
-4.07197e-12
1.10046e-11
-1.22831e-11
7.83287e-14
-8.19924e-13
6.22731e-16
-4.69149e-15
3.20801e-17
-1.42541e-16
3.79949e-14
-1.24368e-13
2.62887e-10
-1.04644e-09
5.78261e-09
-1.62082e-08
1.8227e-08
-1.06814e-08
3.01379e-08
-9.23774e-09
3.68154e-08
4.80235e-09
1.0364e-08
9.85816e-09
-5.09972e-24
2.47087e-23
-6.22451e-23
-2.6909e-23
-4.79804e-20
-1.35188e-20
-1.84571e-18
-1.313e-18
-1.30294e-17
-1.49716e-17
-3.37601e-17
-6.38205e-17
-3.59605e-17
-1.67734e-16
-4.98026e-16
-1.89917e-16
-1.58572e-15
-1.29711e-14
-2.43557e-16
-8.19839e-14
1.60764e-14
-1.43824e-13
7.01515e-13
-6.77599e-14
2.47096e-12
-8.74117e-14
1.95795e-15
-5.79558e-14
4.92674e-16
-3.11437e-15
5.76755e-16
-9.50366e-17
3.68043e-12
-3.80411e-12
5.21779e-10
-1.84178e-09
2.20904e-09
-1.90321e-08
3.02544e-09
-1.0845e-08
3.78639e-09
-1.16316e-08
7.54114e-09
-1.99381e-09
8.25489e-09
2.95192e-09
-3.0591e-25
2.39521e-23
-2.91033e-22
2.63818e-22
-1.23049e-20
-2.75621e-21
-5.06115e-19
-4.13538e-19
-3.72208e-18
-5.20534e-18
-2.189e-17
-2.68785e-17
-1.60616e-17
-1.22818e-16
-2.04077e-17
-1.48078e-16
1.94935e-15
-3.90157e-15
1.00359e-14
-8.38149e-14
1.25733e-14
-9.71558e-14
6.17741e-15
-1.07643e-13
7.54264e-15
-1.34724e-13
7.38968e-15
-1.037e-13
1.38972e-16
-1.36929e-15
2.54333e-16
-7.42972e-17
-3.78356e-12
-2.01629e-14
-1.74234e-10
-3.90722e-11
-1.83941e-09
-2.54388e-09
-5.38722e-09
-2.49237e-08
-4.54413e-09
-3.45929e-08
-6.80212e-11
-9.14896e-09
3.89985e-09
2.6078e-09
2.92647e-24
2.20284e-23
-1.28189e-22
3.61061e-22
-2.4563e-21
-4.3882e-22
-1.09614e-19
-9.79926e-20
-8.0523e-19
-1.38067e-18
-9.01219e-18
-8.82357e-18
-8.43704e-18
-7.8841e-17
-6.06556e-19
-1.72036e-16
1.74173e-16
-5.58597e-16
1.19495e-14
-5.10627e-14
1.2532e-14
-1.01808e-13
1.02113e-14
-1.34935e-13
8.1357e-15
-1.4514e-13
2.34132e-15
-6.00039e-14
-2.55858e-18
-5.06078e-17
-2.28783e-17
-5.65818e-17
-1.92429e-14
-8.78646e-16
-3.89398e-11
-1.34246e-13
-2.57051e-09
-1.101e-11
-5.13338e-09
-6.19722e-10
-1.47601e-08
-8.81242e-09
-1.37281e-08
-6.37364e-09
1.63241e-09
-7.67126e-09
1.12451e-24
1.91196e-23
-1.41723e-23
3.19884e-22
-3.89389e-22
-6.42632e-23
-1.89638e-20
-1.8241e-20
-1.47726e-19
-2.89932e-19
-2.82008e-18
-2.55027e-18
-9.00441e-18
-4.75318e-17
-6.82313e-18
-1.79069e-16
3.27072e-17
-2.25593e-16
3.4313e-15
-5.23918e-15
4.37492e-15
-4.03963e-14
3.3453e-15
-1.1838e-13
-1.05479e-15
-1.25215e-13
-3.31351e-18
-7.15421e-15
-6.91996e-18
-5.11724e-17
-1.47904e-17
-5.28768e-17
-8.20617e-16
-7.61367e-17
-1.34817e-13
-2.70111e-16
-1.11343e-11
-1.03241e-14
-6.30295e-10
-5.52729e-13
-4.70918e-09
-2.17028e-11
-9.61208e-09
-6.67229e-10
-1.19654e-09
-1.01392e-08
1.30443e-25
1.50817e-23
-3.98328e-25
2.46072e-22
-1.46239e-22
8.15774e-23
-2.64264e-21
-2.5772e-21
-2.52716e-20
-4.87881e-20
-9.17573e-19
-6.43389e-19
-1.56096e-17
-2.01165e-17
-1.48142e-17
-1.35075e-16
-1.39603e-17
-1.96841e-16
-1.345e-16
-1.36518e-16
-5.70822e-15
-2.92069e-15
-9.26267e-15
-5.37984e-14
-1.5424e-15
-1.05827e-14
-2.87057e-17
-2.53425e-16
-1.12964e-17
-8.84079e-17
-2.03869e-17
-4.81543e-17
-2.89959e-17
-1.12908e-16
-1.51722e-16
-1.92721e-16
-1.02506e-14
-2.67163e-16
-5.62487e-13
-5.40631e-16
-2.22633e-11
-1.99478e-15
-6.89438e-10
-5.40832e-14
-1.78504e-12
-1.35474e-09
1.62696e-25
1.05208e-23
3.05413e-24
1.6653e-22
-1.0547e-22
1.47788e-22
-3.02375e-22
-2.56682e-22
-4.15275e-21
-6.4536e-21
-2.43437e-19
-1.42075e-19
-7.30453e-18
-5.38452e-18
-2.06732e-17
-5.26289e-17
-1.21856e-17
-1.28586e-16
-1.65307e-17
-1.0432e-16
-3.01228e-15
-3.23941e-17
-5.41233e-16
-2.90185e-17
-3.47153e-17
-2.46132e-17
-2.64819e-17
-3.28473e-17
-1.40757e-17
-5.93911e-17
-2.99156e-17
-1.53492e-17
-8.0427e-17
-1.04812e-17
-1.28434e-16
-9.49052e-17
-1.70369e-16
-3.02378e-16
-2.4041e-16
-5.40115e-16
-1.64916e-15
-6.48397e-16
-5.49865e-14
-7.9464e-16
-8.30704e-16
-1.83915e-12
3.74776e-25
6.36064e-24
5.48283e-24
9.72926e-23
-9.78906e-24
1.0837e-22
-2.6075e-23
-5.32411e-24
-6.40853e-22
-6.43938e-22
-5.07743e-20
-2.76538e-20
-1.96684e-18
-1.10614e-18
-1.27963e-17
-1.23357e-17
-1.59524e-17
-3.94431e-17
-5.26855e-18
-5.50763e-17
-2.6885e-18
-3.87787e-17
-3.29141e-18
-2.02034e-17
-5.72779e-18
-1.40055e-17
-1.26843e-17
-1.55414e-17
-4.73268e-18
-9.96145e-18
-2.55167e-18
-2.66351e-18
-8.30974e-18
-9.08839e-19
-1.2111e-16
-2.43046e-18
-4.10506e-16
-1.44486e-17
-6.84716e-16
-1.15562e-16
-7.95142e-16
-4.12986e-16
-8.69589e-16
-5.9517e-16
-6.04834e-16
-9.5993e-16
4.21087e-25
3.26532e-24
4.23782e-24
4.84091e-23
-2.22852e-26
6.22979e-23
-1.30238e-23
7.6774e-24
-9.05573e-23
-4.36923e-23
-1.03124e-20
-4.66552e-21
-4.14933e-19
-1.83187e-19
-3.11513e-18
-1.97609e-18
-6.96318e-18
-7.44127e-18
-8.38992e-18
-1.52156e-17
-4.83368e-18
-1.46409e-17
-4.5716e-18
-1.62855e-17
-4.14102e-18
-6.19337e-18
-2.9393e-18
-1.26659e-18
-1.02277e-18
-3.3056e-19
-2.65618e-19
-1.25248e-19
-3.82177e-19
-9.26691e-20
-1.56918e-18
-4.02772e-19
-1.71849e-17
-2.66732e-18
-2.06143e-16
-1.65272e-17
-8.1991e-16
-8.57228e-17
-1.28512e-15
-2.71662e-16
-4.47039e-16
-1.83127e-15
3.14908e-25
1.38868e-24
2.64708e-24
2.00505e-23
6.05023e-25
2.92102e-23
-2.67027e-24
6.57889e-24
-1.21016e-23
-1.96008e-24
-1.91415e-21
-6.54351e-22
-6.49917e-20
-2.50662e-20
-5.0066e-19
-2.59312e-19
-1.59184e-18
-1.15283e-18
-3.77892e-18
-2.89943e-18
-4.22686e-18
-4.00986e-18
-2.09101e-18
-3.43298e-18
-4.68164e-19
-1.45734e-18
-1.189e-19
-2.79225e-19
-4.03798e-20
-2.67382e-20
-3.06999e-20
-4.89944e-21
-5.15233e-20
-7.64701e-21
-3.61158e-19
-5.88289e-20
-3.00074e-18
-5.56417e-19
-2.43515e-17
-3.85185e-18
-1.56308e-16
-2.05565e-17
-6.28756e-16
-1.11416e-16
-4.2822e-16
-1.78939e-15
1.70808e-25
4.7409e-25
1.35988e-24
6.70388e-24
5.58028e-25
1.08378e-23
-1.49941e-25
2.71689e-24
-1.53671e-24
-8.98019e-26
-2.91495e-22
-7.37385e-23
-8.43273e-21
-2.96752e-21
-7.502e-20
-3.22732e-20
-3.50923e-19
-1.60454e-19
-6.82067e-19
-4.14915e-19
-7.62208e-19
-5.05717e-19
-5.00616e-19
-4.4102e-19
-1.29714e-19
-2.25041e-19
-1.32677e-20
-5.17455e-20
-1.4489e-21
-3.68797e-21
-1.74326e-21
-1.24969e-22
-5.21549e-21
-5.26077e-22
-6.52796e-20
-9.39943e-21
-7.27973e-19
-1.25343e-19
-5.24036e-18
-1.09195e-18
-3.73641e-17
-6.52731e-18
-4.29097e-16
-3.96504e-17
-2.82271e-16
-2.60448e-15
6.87107e-26
1.24516e-25
5.51745e-25
1.73402e-24
2.48424e-25
3.03858e-24
-9.85943e-27
7.63896e-25
-1.63694e-25
-8.59909e-27
-3.49614e-23
-6.37429e-24
-1.05818e-21
-3.10807e-22
-1.10404e-20
-3.95216e-21
-5.9013e-20
-1.92274e-20
-9.45436e-20
-4.98631e-20
-1.05327e-19
-6.01993e-20
-7.81855e-20
-5.00928e-20
-2.51751e-20
-2.68083e-20
-2.22842e-21
-6.96537e-21
-2.84307e-23
-5.41775e-22
-3.94465e-23
3.42305e-23
-5.15958e-22
-1.28198e-23
-1.21632e-20
-1.6315e-21
-1.89708e-19
-2.93366e-20
-1.68628e-18
-3.42099e-19
-1.12731e-17
-2.45362e-18
-1.32407e-16
-1.13403e-17
-5.5308e-17
-1.2936e-15
2.01583e-26
2.36271e-26
1.67852e-25
3.25914e-25
7.48852e-26
6.01728e-25
-7.57334e-28
1.4802e-25
-1.36979e-26
3.74819e-27
-3.29027e-24
-3.75026e-25
-1.36706e-22
-2.58212e-23
-1.42705e-21
-4.21313e-22
-7.5807e-21
-2.07532e-21
-1.21605e-20
-4.78776e-21
-1.31822e-20
-5.70423e-21
-9.73344e-21
-4.691e-21
-3.44138e-21
-2.2334e-21
-3.36406e-22
-3.84366e-22
2.33572e-23
3.72179e-23
-8.70756e-24
6.71508e-23
-4.69717e-23
2.70329e-25
-2.26889e-21
-2.06065e-22
-4.99779e-20
-6.72141e-21
-6.9681e-19
-9.77641e-20
-4.54466e-18
-9.16862e-19
-2.05679e-17
-4.57287e-18
-1.64787e-17
-1.80056e-16
4.12446e-27
2.90617e-27
3.57136e-26
4.00472e-26
1.54525e-26
7.62575e-26
5.29308e-28
1.82473e-26
-3.75122e-26
2.21394e-27
-2.19194e-25
-1.21618e-26
-1.43875e-23
-1.40745e-24
-1.74321e-22
-3.14549e-23
-7.72454e-22
-1.64184e-22
-1.21607e-21
-3.34339e-22
-1.31529e-21
-4.12314e-22
-8.97669e-22
-3.40536e-22
-2.15831e-22
-1.4371e-22
2.39649e-23
1.10127e-23
4.90365e-23
5.72138e-23
2.24759e-25
6.80609e-23
-1.3307e-22
2.9115e-23
-3.92947e-22
-2.89383e-23
-1.16157e-20
-1.53029e-21
-2.23893e-19
-2.62283e-20
-2.01448e-18
-3.00742e-19
-7.35852e-18
-1.77186e-18
-7.10391e-18
-2.90553e-17
5.36772e-28
1.78325e-28
4.81286e-27
2.50375e-27
2.00881e-27
5.04496e-27
3.29565e-28
1.17205e-27
-1.31086e-27
1.83107e-28
-8.74914e-27
-6.02666e-29
-1.00329e-24
-3.7483e-26
-1.52564e-23
-1.25736e-24
-5.46165e-23
-7.1566e-24
-9.14966e-23
-1.47546e-23
-9.91919e-23
-1.89494e-23
-6.44318e-23
-1.34324e-23
6.68111e-24
2.92988e-24
3.92017e-23
2.14195e-23
5.27371e-23
4.3429e-23
2.55771e-23
3.71109e-23
-2.15139e-23
1.67683e-23
-7.40589e-23
-4.32951e-24
-2.7102e-21
-3.34853e-22
-6.27045e-20
-6.61836e-21
-6.67812e-19
-8.98804e-20
-2.84237e-18
-6.08232e-19
-2.82392e-18
-1.34971e-17
3.49201e-29
3.38999e-37
3.33742e-28
1.13472e-34
1.34479e-28
2.95983e-33
2.842e-29
4.91913e-32
-9.87844e-30
4.46514e-31
-1.421e-28
-3.03496e-30
-3.61267e-26
-2.22989e-28
-6.61362e-25
-1.82974e-26
-2.41176e-24
-1.37568e-25
-4.29475e-24
-3.25513e-25
-4.47243e-24
-2.2137e-25
1.66167e-24
6.18507e-25
1.37241e-23
4.10852e-24
3.14122e-23
1.22683e-23
3.0312e-23
1.65193e-23
1.54855e-23
1.2472e-23
-3.71575e-24
5.47863e-24
-1.40559e-23
-7.84625e-25
-6.05506e-22
-6.93193e-23
-1.6658e-20
-1.52594e-21
-2.02035e-19
-2.41888e-20
-9.46291e-19
-1.81688e-19
-8.85648e-19
-5.69406e-18
1.62228e-36
1.50187e-37
2.01727e-34
4.96279e-35
5.79059e-33
1.36445e-33
7.12919e-32
2.59866e-32
-3.74418e-32
3.76855e-31
-7.0475e-30
3.9751e-30
-3.8041e-28
2.82463e-29
-1.13596e-26
1.341e-28
-6.45808e-26
8.24114e-28
-6.99017e-26
7.18057e-27
3.23723e-25
5.99526e-26
2.43938e-24
3.75913e-25
8.23859e-24
1.53683e-24
1.25322e-23
3.34516e-24
1.06865e-23
3.89769e-24
5.30299e-24
2.70316e-24
-7.3276e-25
1.11779e-24
-2.73223e-24
-1.51483e-25
-1.26446e-22
-1.34753e-23
-4.09735e-21
-3.13961e-22
-5.74355e-20
-5.68433e-21
-2.67447e-19
-4.68726e-20
-2.39621e-19
-1.34605e-18
7.09235e-37
5.16928e-38
9.35042e-35
1.66073e-35
3.07976e-33
4.67498e-34
6.08939e-32
9.0806e-33
8.20014e-31
1.36588e-31
7.16105e-30
1.58924e-30
4.06886e-29
1.42266e-29
2.93685e-28
9.8637e-29
2.96657e-27
5.93132e-28
2.84579e-26
3.54075e-27
2.03734e-25
1.99803e-26
9.46944e-25
9.04471e-26
2.33803e-24
2.81307e-25
3.0848e-24
5.2718e-25
2.42023e-24
5.55256e-25
1.13222e-24
3.55119e-25
-1.52007e-25
1.2958e-25
-5.34583e-25
-4.46553e-26
-2.44471e-23
-2.36931e-24
-9.0139e-22
-5.72893e-23
-1.44119e-20
-1.17161e-21
-6.60848e-20
-1.04733e-20
-5.38028e-20
-2.52658e-19
2.24981e-37
1.30429e-38
3.12638e-35
4.01482e-36
1.05874e-33
1.15171e-34
2.19131e-32
2.24058e-33
3.27514e-31
3.37016e-32
3.62047e-30
3.98722e-31
3.01658e-29
3.74828e-30
2.13982e-28
2.81168e-29
1.48734e-27
1.71932e-28
9.68222e-27
8.92102e-28
5.02466e-26
3.97535e-27
1.78413e-25
1.39795e-26
3.80819e-25
3.48921e-26
4.56044e-25
5.66886e-26
3.31367e-25
5.14085e-26
1.37309e-25
2.89579e-26
-4.2284e-26
7.49559e-27
-1.09064e-25
-1.20315e-26
-4.275e-24
-3.58728e-25
-1.82936e-22
-9.71524e-24
-3.43053e-21
-2.4736e-22
-1.42331e-20
-2.02069e-21
-5.80265e-21
-1.95267e-20
4.67918e-38
2.1819e-39
7.25083e-36
6.30236e-37
2.50826e-34
1.8252e-35
5.25791e-33
3.4738e-34
8.05479e-32
5.03847e-33
9.40754e-31
5.7679e-32
8.52714e-30
5.3245e-31
6.18285e-29
3.96009e-30
3.75438e-28
2.35021e-29
1.94073e-27
1.10385e-28
7.86538e-27
4.08739e-28
2.25391e-26
1.18288e-27
4.19475e-26
2.56495e-27
4.35255e-26
3.66832e-27
2.803e-26
2.62253e-27
8.30023e-27
1.15759e-27
-1.03737e-26
-7.35088e-30
-1.96147e-26
-1.68676e-27
-6.52448e-25
-4.85809e-26
-4.367e-23
-1.73542e-24
-1.58293e-21
-5.34357e-23
-2.76831e-21
-3.46301e-22
-1.30298e-21
3.14501e-20
5.1615e-39
1.90088e-40
1.0408e-36
4.9603e-38
3.64159e-35
1.43242e-36
7.48106e-34
2.56706e-35
1.11962e-32
3.33719e-34
1.293e-31
3.29426e-33
1.16908e-30
2.57613e-32
8.27411e-30
1.64205e-31
4.57478e-29
8.6854e-31
1.97667e-28
3.84188e-30
6.63588e-28
1.4123e-29
1.66346e-27
4.16456e-29
2.74549e-27
8.96781e-29
2.26467e-27
1.14216e-28
1.15391e-27
6.60151e-29
-8.47396e-30
2.02763e-29
-4.6828e-29
-6.33487e-30
-2.42252e-27
-2.16803e-28
-9.95029e-26
-5.53083e-27
-1.17853e-23
-2.4485e-25
-2.88574e-22
-8.44752e-24
-5.48368e-22
-5.4133e-23
-3.13313e-22
-1.54341e-21
1.55389e-40
1.21386e-42
7.10018e-38
3.04289e-40
2.46209e-36
9.42383e-39
4.62079e-35
1.82495e-37
6.02307e-34
2.61105e-36
5.93599e-33
2.88973e-35
4.62602e-32
2.57791e-34
2.93417e-31
1.8989e-33
1.53671e-30
1.1684e-32
6.62937e-30
5.99282e-32
2.28333e-29
2.49669e-31
5.72754e-29
7.825e-31
8.49233e-29
1.51621e-30
5.7213e-29
9.62082e-31
2.05312e-29
3.34312e-31
-7.98004e-30
-1.34618e-31
-1.38662e-29
-7.9292e-31
-2.82872e-28
-1.81273e-29
-1.26619e-26
-5.09297e-28
-1.93768e-24
-2.64741e-26
-4.95206e-23
-1.06523e-24
-1.0517e-22
-7.36041e-24
-7.5602e-23
-3.56875e-22
-3.14015e-44
2.6774e-45
3.89496e-40
7.26677e-43
1.5702e-38
2.72416e-41
3.30946e-37
6.32676e-40
4.88508e-36
1.08594e-38
5.52859e-35
1.44119e-37
5.00609e-34
1.54042e-36
3.71114e-33
1.35466e-35
2.26377e-32
9.83829e-35
1.11287e-31
5.7916e-34
4.09824e-31
2.6023e-33
9.31692e-31
7.69774e-33
6.9431e-31
1.04353e-32
2.84207e-31
5.05177e-33
-1.35563e-31
1.45553e-33
-1.58766e-31
-3.19382e-34
-9.80731e-31
-4.24793e-32
-2.35003e-29
-1.20745e-30
-1.22149e-27
-3.77669e-29
-2.40829e-25
-2.08881e-27
-7.65465e-24
-1.00666e-25
-1.89406e-23
-8.15142e-25
-1.51831e-23
-8.71097e-23
-2.1395e-46
5.1097e-48
9.00287e-43
1.40463e-45
4.81847e-41
6.2894e-44
1.24468e-39
1.7236e-42
2.22508e-38
3.49924e-41
3.03648e-37
5.49244e-40
3.29599e-36
6.91209e-39
2.89334e-35
7.06393e-38
2.03195e-34
5.78868e-37
1.08091e-33
3.59976e-36
3.77193e-33
1.47589e-35
6.03104e-33
2.81906e-35
3.45325e-33
1.25863e-35
1.18347e-33
3.27866e-36
-2.21324e-34
-1.07894e-37
-9.99211e-34
-4.41907e-35
-5.40209e-32
-2.16906e-33
-1.58995e-30
-7.05158e-32
-8.72247e-29
-2.55295e-30
-2.05448e-26
-1.36124e-28
-9.80041e-25
-6.8736e-27
-3.18848e-24
-4.11292e-26
2.18419e-25
-2.10397e-23
-6.56239e-49
3.40296e-51
1.60028e-45
1.05305e-48
1.16482e-43
6.29448e-47
3.62756e-42
2.19566e-45
7.74751e-41
5.5724e-44
1.25204e-39
1.06579e-42
1.58432e-38
1.58485e-41
1.57204e-37
1.81493e-40
1.16746e-36
1.49861e-39
5.67161e-36
7.45004e-39
1.27955e-35
1.21155e-38
6.75285e-36
4.53589e-39
2.08848e-36
1.00461e-39
-8.22649e-38
-1.37283e-41
-4.81686e-37
-6.05198e-39
-5.78351e-35
-2.16426e-36
-2.60157e-33
-1.06302e-34
-9.62689e-32
-4.26526e-33
-5.56204e-30
-1.71193e-31
-1.57937e-27
-8.08702e-30
-1.14378e-25
-3.31084e-28
-3.00272e-25
8.08359e-28
1.99722e-25
-3.74421e-25
-5.51893e-52
8.89441e-55
1.20984e-48
3.06843e-52
1.34329e-46
2.41819e-50
5.30511e-45
1.03379e-48
1.39679e-43
3.09431e-47
2.68087e-42
6.57346e-46
3.80977e-41
9.74634e-45
3.8112e-40
8.96615e-44
2.2616e-39
3.64923e-43
4.35322e-39
1.12589e-43
1.92268e-39
4.86677e-44
5.02947e-40
3.15619e-43
-8.16076e-42
6.13467e-44
-2.13965e-41
-8.88475e-43
-1.97913e-38
-2.2049e-40
-2.27435e-36
-1.03655e-37
-1.24496e-34
-5.21612e-36
-5.93168e-33
-2.28603e-34
-3.4598e-31
-9.33301e-33
-1.04055e-28
-3.34458e-31
-8.97704e-27
-8.42721e-30
-2.07671e-26
2.79388e-28
2.59133e-26
1.4795e-25
-1.5814e-55
4.8332e-60
3.54864e-52
1.58791e-57
5.89856e-50
1.16321e-55
2.778e-48
3.36503e-54
8.21685e-47
3.59279e-53
1.57846e-45
1.20297e-53
1.80527e-44
9.38175e-52
8.9023e-44
9.79615e-50
3.27515e-44
6.9647e-48
1.6731e-44
3.19996e-46
1.27766e-43
8.43838e-45
2.92746e-44
9.38317e-44
-2.65951e-43
2.87311e-44
-1.13024e-42
-2.41899e-44
-8.34277e-40
-6.14886e-42
-9.80764e-38
-3.51833e-39
-5.83734e-36
-2.2039e-37
-3.28171e-34
-9.69347e-36
-1.64176e-32
-3.90254e-34
-3.54101e-30
-1.21461e-32
-4.91357e-28
-1.98656e-31
-8.01661e-28
1.67379e-29
1.59933e-27
2.56499e-26
-8.64758e-61
-8.59745e-77
1.3227e-57
5.21064e-66
1.82915e-55
1.69585e-62
3.09757e-54
1.05683e-59
1.46058e-54
3.81339e-57
1.47866e-52
8.68669e-55
1.92144e-50
1.34326e-52
1.65584e-48
1.4316e-50
9.07233e-47
1.03596e-48
2.82625e-45
4.82707e-47
3.69863e-44
1.28274e-45
1.33421e-44
1.41969e-44
-6.95321e-45
4.03728e-45
-3.06496e-44
-4.93486e-46
-2.16239e-41
-1.30244e-43
-3.54755e-39
-8.46435e-41
-2.33804e-37
-6.47256e-39
-1.36055e-35
-3.36766e-37
-6.45695e-34
-1.22963e-35
-7.91937e-32
-4.5317e-34
-2.11818e-29
-7.91226e-33
-2.8363e-29
5.66825e-31
7.83433e-30
2.27289e-27
1.44953e-77
-1.70688e-77
1.49126e-64
1.01334e-67
5.44043e-61
3.81745e-64
3.14258e-58
2.259e-61
1.01639e-55
7.56232e-59
2.04407e-53
1.60363e-56
2.71478e-51
2.31459e-54
2.38363e-49
2.29561e-52
1.32592e-47
1.5133e-50
4.16827e-46
6.01286e-49
5.4384e-45
1.09682e-47
1.82471e-45
2.40434e-48
-1.36519e-46
6.09861e-50
-6.22962e-46
-7.04257e-48