/*--------------------------------*- C++ -*----------------------------------*\
| =========                 |                                                 |
| \\      /  F ield         | OpenFOAM: The Open Source CFD Toolbox           |
|  \\    /   O peration     | Version:  2206                                  |
|   \\  /    A nd           | Website:  www.openfoam.com                      |
|    \\/     M anipulation  |                                                 |
\*---------------------------------------------------------------------------*/
FoamFile
{
    version     2.0;
    format      ascii;
    arch        "LSB;label=32;scalar=64";
    class       volScalarField;
    location    "0.475";
    object      p;
}
// * * * * * * * * * * * * * * * * * * * * * * * * * * * * * * * * * * * * * //

dimensions      [1 -1 -2 0 0 0 0];

internalField   nonuniform List<scalar> 
2268
(
693.424
690.978
695.572
704.422
713.45
719.753
722.948
725.547
730.028
737.585
748.449
762.593
779.734
799.773
822.511
847.537
873.69
898.83
917.517
931.483
916.882
909.965
957.335
633.988
630.864
635.255
644.006
653.133
659.566
662.868
665.578
670.196
677.879
688.816
702.818
719.782
739.535
761.883
786.526
812.666
838.752
859.89
877.174
863.139
839.979
891.639
573.73
569.864
573.603
582.117
591.395
598.094
601.604
604.534
609.42
617.354
628.468
642.611
659.672
679.447
701.624
725.676
750.716
775.617
797.173
814.248
807.69
777.242
831.783
513.146
508.211
510.698
518.94
528.364
535.464
539.274
542.518
547.788
556.078
567.449
581.764
598.909
618.688
640.78
664.599
689.119
713.032
733.836
750.02
751.035
736.272
783.134
452.856
446.345
447.05
454.265
464.121
471.827
476.007
479.635
485.396
494.128
505.805
520.31
537.571
557.417
579.542
603.325
627.746
651.381
672.069
688.643
697.114
697.388
741.432
393.55
384.86
382.701
388.307
398.77
407.353
411.942
415.945
422.258
431.513
443.551
458.282
475.692
495.65
517.919
541.845
566.417
590.223
611.456
629.231
643.134
654.049
697.434
335.78
323.578
318.231
321.914
332.861
342.286
347.275
351.663
358.505
368.246
380.624
395.594
413.25
433.377
455.906
480.13
505.062
529.301
551.346
570.295
586.639
601.934
636.442
280.355
265.963
255.67
256.421
266.979
276.48
281.798
286.941
294.568
304.791
317.363
332.363
350.11
370.512
393.606
418.38
443.882
468.685
491.538
511.424
527.962
543.622
559.862
239.186
239.223
239.314
239.469
239.7
240.017
240.425
240.909
241.063
240.064
239.091
239.857
242.335
246.221
251.337
306.658
540.586
1123.88
1589.65
239.117
239.15
239.236
239.387
239.614
239.93
240.351
240.907
241.38
240.556
238.873
235.252
228.433
225.205
224.561
251.619
391.769
921.808
1509.27
239.037
239.062
239.139
239.278
239.49
239.795
240.219
240.849
241.747
241.357
236.952
220.24
215.119
221.404
226.27
233.838
277.63
509.509
1230.4
238.949
238.956
239.022
239.143
239.33
239.604
239.983
240.538
241.471
240.86
232.169
210.406
211.103
218.952
225.873
230.392
245.478
316.648
863.942
238.856
238.832
238.884
238.985
239.138
239.363
239.649
239.968
240.371
239.008
228.9
212.16
211.058
218.354
225.072
228.742
233.542
251.19
606.401
238.764
238.688
238.729
238.806
238.92
239.088
239.255
239.272
239.016
237.105
228.477
216.09
213.705
219.218
224.786
227.852
230.837
234.068
397.617
238.682
238.525
238.558
238.611
238.684
238.802
238.855
238.575
237.826
235.8
229.22
220.067
217.32
220.828
225.143
227.589
230.166
228.772
262.667
238.61
238.363
238.363
238.4
238.432
238.526
238.481
237.939
236.95
234.948
230.183
223.682
221.099
222.916
225.905
227.885
229.787
228.593
232.819
196.796
181.677
159.629
153.399
162.77
171.47
176.882
183.566
193.171
204.839
218.129
233.265
250.867
270.987
294.454
320.257
347.371
373.796
398.425
420.035
434.755
439.855
397.801
92.0317
77.4443
44.714
32.0788
39.3702
45.9318
48.4385
52.5767
59.6076
68.6293
79.5731
93.7003
112.327
135.829
160.919
189.468
218.798
246.738
273.833
298.339
316.426
326.734
331.721
24.6471
8.76932
1.11686
0.34116
1.12185
2.26923
2.25513
2.7787
4.16578
6.29423
9.15757
13.0274
18.4719
26.3892
39.559
58.3675
85.6868
118.214
153.294
183.118
206.16
227.512
249.463
-0.231092
-0.356976
-0.192623
-0.069904
-0.135677
-0.127974
-0.128225
-0.135008
-0.138216
-0.126686
-0.10072
-0.0715874
-0.0386523
0.018824
0.200602
2.19009
9.03924
24.2103
49.0931
75.4639
101.294
130.012
154.32
-0.321508
-0.340755
-0.218175
-0.228691
-0.309419
-0.284133
-0.281809
-0.285425
-0.289568
-0.287563
-0.277893
-0.258524
-0.225665
-0.197013
-0.166848
-0.183697
-0.11726
0.405388
3.26859
9.66628
23.4576
48.6019
71.6787
-0.441804
-0.439021
-0.404962
-0.405501
-0.429295
-0.428157
-0.428208
-0.430046
-0.431068
-0.428969
-0.423688
-0.417501
-0.42275
-0.440618
-0.442487
-0.418976
-0.327141
-0.261816
-0.159737
-0.0556182
-0.00160419
2.80837
11.8859
-0.584627
-0.582169
-0.566808
-0.565458
-0.572268
-0.573838
-0.574863
-0.576126
-0.576521
-0.574795
-0.570546
-0.564248
-0.560684
-0.564482
-0.575177
-0.565391
-0.53399
-0.528426
-0.489241
-0.455015
-0.453588
-0.37682
-0.457159
-0.72589
-0.722738
-0.716914
-0.716706
-0.7188
-0.720261
-0.721476
-0.72273
-0.723437
-0.72282
-0.720652
-0.718718
-0.722891
-0.732441
-0.744507
-0.738174
-0.723431
-0.713776
-0.697675
-0.680955
-0.770575
-0.907851
-0.862206
-0.870639
-0.868406
-0.865707
-0.865482
-0.866244
-0.867269
-0.868394
-0.869687
-0.87084
-0.871314
-0.870811
-0.870602
-0.872616
-0.880101
-0.886958
-0.890094
-0.890269
-0.900469
-0.929251
-0.988494
-1.08754
-1.19162
-1.2034
-1.01638
-1.01468
-1.01328
-1.01322
-1.01367
-1.01446
-1.01547
-1.01672
-1.01809
-1.01932
-1.02014
-1.02138
-1.02395
-1.02936
-1.03562
-1.0422
-1.05195
-1.06809
-1.11526
-1.19964
-1.31934
-1.43678
-1.38927
-1.1622
-1.16106
-1.16038
-1.16048
-1.16089
-1.1616
-1.16254
-1.16372
-1.16511
-1.16665
-1.16826
-1.17034
-1.17345
-1.17839
-1.18501
-1.194
-1.20776
-1.22891
-1.27816
-1.35366
-1.45906
-1.57696
-1.5141
-1.30817
-1.30747
-1.3072
-1.30742
-1.30788
-1.30859
-1.30952
-1.31067
-1.31205
-1.31369
-1.31562
-1.31815
-1.32164
-1.32673
-1.33378
-1.34362
-1.35749
-1.37982
-1.41998
-1.47833
-1.55341
-1.61036
-1.57752
-1.45421
-1.45382
-1.45381
-1.45413
-1.45464
-1.45538
-1.45633
-1.4575
-1.4589
-1.46061
-1.4627
-1.46545
-1.46911
-1.47418
-1.48111
-1.49057
-1.50337
-1.52239
-1.55177
-1.59478
-1.64403
-1.67334
-1.65274
-1.60028
-1.60008
-1.60023
-1.60063
-1.60119
-1.60196
-1.60294
-1.60413
-1.60558
-1.60733
-1.60951
-1.61229
-1.61591
-1.62073
-1.62709
-1.63542
-1.64635
-1.66114
-1.68133
-1.70773
-1.73645
-1.75547
-1.74666
-1.7463
-1.74628
-1.7465
-1.74694
-1.74753
-1.74833
-1.74932
-1.75053
-1.75199
-1.75376
-1.75594
-1.75865
-1.76209
-1.76648
-1.77204
-1.77905
-1.78786
-1.79892
-1.81247
-1.82791
-1.84224
-1.8492
-1.84352
-1.89227
-1.89235
-1.89262
-1.89308
-1.89369
-1.89449
-1.89548
-1.89668
-1.89813
-1.89987
-1.90198
-1.90455
-1.90771
-1.9116
-1.91636
-1.92212
-1.92902
-1.93709
-1.94615
-1.95532
-1.96242
-1.96416
-1.95846
-2.03817
-2.03831
-2.03859
-2.03905
-2.03967
-2.04046
-2.04143
-2.04261
-2.04401
-2.04568
-2.04768
-2.05005
-2.05289
-2.05628
-2.06027
-2.06491
-2.07019
-2.07599
-2.08195
-2.08723
-2.0904
-2.08988
-2.08474
-2.18398
-2.18413
-2.18442
-2.18488
-2.18548
-2.18625
-2.1872
-2.18833
-2.18967
-2.19125
-2.19309
-2.19525
-2.19777
-2.20067
-2.20398
-2.20767
-2.21166
-2.21575
-2.21957
-2.22248
-2.22355
-2.22189
-2.21694
-2.32968
-2.32983
-2.33012
-2.33056
-2.33115
-2.33189
-2.3328
-2.33387
-2.33513
-2.3366
-2.33829
-2.34024
-2.34245
-2.34493
-2.34766
-2.35059
-2.35361
-2.35651
-2.35896
-2.36049
-2.36046
-2.35837
-2.35384
-2.47527
-2.47542
-2.47569
-2.47612
-2.47668
-2.47739
-2.47825
-2.47926
-2.48044
-2.48179
-2.48334
-2.48508
-2.48702
-2.48914
-2.49141
-2.49376
-2.49607
-2.49815
-2.49974
-2.50049
-2.49998
-2.49786
-2.49389
-2.62075
-2.62089
-2.62114
-2.62155
-2.62209
-2.62276
-2.62357
-2.62452
-2.62561
-2.62686
-2.62826
-2.62982
-2.63153
-2.63337
-2.63528
-2.6372
-2.63903
-2.64059
-2.6417
-2.64208
-2.64146
-2.63961
-2.63634
-2.76612
-2.76625
-2.76649
-2.76688
-2.76738
-2.76802
-2.76878
-2.76966
-2.77068
-2.77183
-2.77311
-2.77452
-2.77604
-2.77765
-2.77931
-2.78093
-2.78245
-2.78372
-2.78459
-2.78489
-2.7844
-2.78299
-2.78053
-2.9114
-2.91151
-2.91173
-2.91211
-2.91258
-2.91318
-2.91389
-2.91472
-2.91566
-2.91673
-2.9179
-2.91919
-2.92057
-2.92201
-2.92348
-2.92492
-2.92626
-2.9274
-2.92822
-2.92861
-2.92842
-2.92756
-2.92595
-3.05658
-3.05668
-3.05689
-3.05724
-3.05769
-3.05825
-3.05892
-3.05969
-3.06057
-3.06156
-3.06266
-3.06384
-3.06511
-3.06644
-3.0678
-3.06914
-3.0704
-3.07151
-3.07241
-3.073
-3.07319
-3.07294
-3.0722
-3.20168
-3.20176
-3.20195
-3.20229
-3.20271
-3.20324
-3.20386
-3.20459
-3.20542
-3.20635
-3.20737
-3.20849
-3.20968
-3.21094
-3.21223
-3.21352
-3.21478
-3.21596
-3.217
-3.21785
-3.21848
-3.21884
-3.21894
-3.3467
-3.34677
-3.34694
-3.34726
-3.34765
-3.34815
-3.34874
-3.34943
-3.35021
-3.35108
-3.35206
-3.35312
-3.35426
-3.35547
-3.35674
-3.35803
-3.35934
-3.36061
-3.36185
-3.36301
-3.36407
-3.36504
-3.36592
-3.49164
-3.4917
-3.49185
-3.49215
-3.49252
-3.49299
-3.49355
-3.4942
-3.49494
-3.49578
-3.4967
-3.49773
-3.49884
-3.50003
-3.50129
-3.50262
-3.50399
-3.5054
-3.50684
-3.50832
-3.50982
-3.51135
-3.51295
-3.63651
-3.63656
-3.63669
-3.63697
-3.63732
-3.63776
-3.63829
-3.63891
-3.63962
-3.64042
-3.64131
-3.6423
-3.64339
-3.64458
-3.64585
-3.64722
-3.64868
-3.65023
-3.65189
-3.65367
-3.65558
-3.65766
-3.65992
-3.78131
-3.78135
-3.78147
-3.78173
-3.78205
-3.78247
-3.78297
-3.78356
-3.78424
-3.78501
-3.78587
-3.78684
-3.78792
-3.7891
-3.79039
-3.79181
-3.79335
-3.79504
-3.7969
-3.79897
-3.80127
-3.80385
-3.80675
-3.92603
-3.92607
-3.92616
-3.92641
-3.92671
-3.92711
-3.92758
-3.92815
-3.9288
-3.92954
-3.93038
-3.93133
-3.93239
-3.93357
-3.93488
-3.93634
-3.93796
-3.93977
-3.94181
-3.94413
-3.94679
-3.94984
-3.95334
-4.07067
-4.07072
-4.07079
-4.07102
-4.0713
-4.07168
-4.07213
-4.07266
-4.07329
-4.074
-4.07482
-4.07574
-4.07679
-4.07797
-4.07929
-4.08078
-4.08246
-4.08437
-4.08656
-4.08909
-4.09205
-4.09551
-4.09958
-4.21522
-4.21529
-4.21534
-4.21557
-4.21583
-4.21618
-4.21661
-4.21712
-4.21771
-4.2184
-4.21919
-4.22009
-4.22111
-4.22227
-4.22359
-4.22509
-4.22681
-4.22879
-4.23109
-4.23378
-4.23697
-4.24075
-4.24518
-4.35971
-4.3598
-4.35983
-4.36006
-4.36029
-4.36063
-4.36102
-4.36151
-4.36207
-4.36273
-4.36348
-4.36435
-4.36534
-4.36647
-4.36778
-4.36927
-4.371
-4.37301
-4.37536
-4.37815
-4.3815
-4.38564
-4.39108
-4.50414
-4.50424
-4.50425
-4.50449
-4.50469
-4.505
-4.50538
-4.50583
-4.50636
-4.50697
-4.50769
-4.50851
-4.50946
-4.51056
-4.51182
-4.51329
-4.51499
-4.51699
-4.51934
-4.52215
-4.52555
-4.52983
-4.53492
-4.64849
-4.6486
-4.6486
-4.64883
-4.649
-4.6493
-4.64964
-4.65006
-4.65055
-4.65112
-4.65178
-4.65255
-4.65345
-4.65448
-4.65568
-4.65708
-4.65872
-4.66064
-4.66292
-4.66565
-4.66896
-4.67289
-4.67771
-4.79278
-4.79289
-4.79288
-4.79312
-4.79326
-4.79354
-4.79384
-4.79421
-4.79465
-4.79517
-4.79577
-4.79647
-4.79729
-4.79824
-4.79935
-4.80065
-4.80216
-4.80395
-4.80606
-4.80856
-4.81155
-4.81514
-4.81945
-4.93705
-4.9372
-4.93716
-4.93741
-4.93751
-4.93776
-4.93802
-4.93834
-4.93873
-4.93917
-4.9397
-4.94032
-4.94104
-4.94188
-4.94287
-4.94402
-4.94538
-4.94697
-4.94883
-4.95101
-4.95356
-4.95672
-4.96041
-5.08138
-5.08155
-5.0815
-5.08174
-5.08181
-5.08203
-5.08224
-5.08251
-5.08283
-5.08321
-5.08365
-5.08417
-5.08479
-5.08551
-5.08636
-5.08736
-5.08854
-5.08993
-5.09155
-5.09345
-5.09563
-5.09793
-5.10104
-5.22568
-5.22585
-5.22577
-5.22601
-5.22604
-5.22622
-5.22639
-5.2266
-5.22685
-5.22715
-5.22751
-5.22793
-5.22843
-5.22902
-5.22973
-5.23056
-5.23155
-5.23271
-5.23408
-5.23568
-5.23755
-5.23971
-5.24187
-5.36976
-5.36993
-5.36985
-5.37004
-5.37004
-5.37018
-5.37029
-5.37044
-5.37062
-5.37083
-5.37109
-5.37139
-5.37175
-5.37219
-5.37272
-5.37334
-5.37409
-5.37497
-5.376
-5.37719
-5.37854
-5.37999
-5.38132
-5.51337
-5.51356
-5.51347
-5.51361
-5.51359
-5.51366
-5.51371
-5.51377
-5.51385
-5.51394
-5.51405
-5.5142
-5.51437
-5.51458
-5.51485
-5.51517
-5.51555
-5.516
-5.51653
-5.51711
-5.51774
-5.51832
-5.51875
-5.65746
-5.65764
-5.65756
-5.65764
-5.65761
-5.65761
-5.6576
-5.65759
-5.65757
-5.65755
-5.65754
-5.65753
-5.65753
-5.65754
-5.65757
-5.65762
-5.65768
-5.65777
-5.65789
-5.65801
-5.65814
-5.65824
-5.6583
245.024
398.385
419.55
246.302
307.871
331.521
324.42
228.411
253.128
271.19
265.965
233.322
176.442
211.814
228.629
235.051
101.922
148.52
196.849
234.495
45.2345
83.0611
148.861
234.312
2.76907
29.9126
68.0153
154.409
-1.0411
-0.515686
9.80634
49.8694
-1.43934
-1.15815
-1.73913
6.0066
-1.27843
-1.20804
-1.24957
-1.06358
-1.33847
-1.26365
-1.32618
-1.2465
-1.45898
-1.40783
-1.38335
-1.32179
-1.58807
-1.53802
-1.4938
-1.45367
-1.70911
-1.67124
-1.62882
-1.57628
-1.82346
-1.79279
-1.75485
-1.70987
-1.94367
-1.91846
-1.88582
-1.84519
-2.07284
-2.05091
-2.02211
-1.98549
-2.20666
-2.18784
-2.16274
-2.13054
-2.34501
-2.32906
-2.30781
-2.28098
-2.48647
-2.47326
-2.4558
-2.43396
-2.63038
-2.6199
-2.60622
-2.58951
-2.77607
-2.76828
-2.75834
-2.74671
-2.92298
-2.9178
-2.91143
-2.90462
-3.07066
-3.0679
-3.06479
-3.06233
-3.21873
-3.21814
-3.21783
-3.21899
-3.3669
-3.36819
-3.37017
-3.374
-3.51502
-3.5179
-3.52167
-3.52718
-3.66298
-3.66729
-3.67257
-3.67909
-3.81077
-3.81652
-3.82348
-3.83138
-3.95836
-3.96575
-3.97517
-3.98664
-4.10568
-4.11487
-4.128
-4.14692
-4.25263
-4.26449
-4.28125
-4.31049
-4.39848
-4.41171
-4.43216
-4.46953
-4.54266
-4.55621
-4.57781
-4.61489
-4.68504
-4.69728
-4.71628
-4.74623
-4.82578
-4.83563
-4.84932
-4.86827
-4.96544
-4.97248
-4.98073
-4.98891
-5.10473
-5.10919
-5.11312
-5.11407
-5.24413
-5.24653
-5.2476
-5.2449
-5.38369
-5.38483
-5.38391
-5.38025
-5.5193
-5.51978
-5.52013
-5.51798
-5.65833
-5.65855
-5.65875
-5.65806
238.488
237.787
238
238.07
238.062
238.186
237.991
237.094
235.919
234.222
231.298
227.661
225.695
225.996
227.353
228.751
229.898
229.504
232.073
233.52
236.082
236.927
237.072
236.881
237.369
236.804
235.577
234.944
233.874
231.95
229.742
228.435
228.309
228.959
229.838
230.448
230.353
234.137
234.768
235.406
235.728
235.678
234.913
233.118
233.463
234.376
234.501
233.62
232.086
230.391
229.593
229.563
229.901
230.422
230.713
231.233
234.78
235.194
235.173
235.215
234.978
234.318
233.347
235.417
235.128
234.002
232.971
230.75
229.865
229.918
230.17
230.267
230.523
230.524
230.96
241.465
235.005
235.03
235.104
234.963
234.688
234.377
234.825
233.744
230.915
227.574
228.435
229.287
229.802
230.259
230.39
230.393
230.551
230.534
285.263
235.044
235.019
234.96
234.925
234.564
233.811
232.416
231.295
229.087
199.967
228.249
228.041
225.981
229.842
230.187
230.295
230.706
243.376
379.815
196.601
222.897
219.952
210.788
209.729
219.841
219.573
215.324
191.104
111.92
119.435
164.818
198.586
217.882
222.363
226.627
223.817
338.817
538.693
112.986
154.925
153.961
147.249
150.981
160.637
148.405
146.251
119.668
86.8152
92.302
124.356
158.724
179.074
183.377
207.957
321.417
519.731
715.608
20.848
36.4998
50.6518
58.8901
62.9337
65.0196
64.2835
61.2974
53.671
44.6283
40.7534
43.5076
51.6173
75.6785
135.203
252.775
433.315
633.464
796.389
-0.895529
-0.0233624
4.34803
9.35602
11.261
10.7183
9.49989
7.83795
5.74785
3.52147
2.30972
2.45282
3.32622
6.98984
23.1597
105.431
321.28
565.549
709.868
-1.13512
-1.22653
-1.11442
-0.927861
-0.778221
-0.683228
-0.610244
-0.535996
-0.472129
-0.41102
-0.341762
-0.286311
-0.21886
0.0916364
2.29928
12.6281
115.22
368.019
488.972
-1.28218
-1.30612
-1.21231
-1.09698
-0.990201
-0.895305
-0.805929
-0.718422
-0.630847
-0.530744
-0.403322
-0.268867
-0.0339194
0.263383
1.31253
3.97747
35.4205
227.865
292.579
-1.40775
-1.37349
-1.30911
-1.22631
-1.14074
-1.05862
-0.978324
-0.895888
-0.805036
-0.688078
-0.54366
-0.459708
-0.40324
0.190479
1.02239
4.04513
82.5322
161.351
195.628
-1.53119
-1.49039
-1.43417
-1.3674
-1.29635
-1.22519
-1.15468
-1.0837
-1.00783
-0.930841
-0.892265
-0.933696
-1.2785
-2.77806
-8.32852
60.3934
135
150.991
165.691
-1.66454
-1.62362
-1.57433
-1.51821
-1.45786
-1.3957
-1.3334
-1.27298
-1.21703
-1.17075
-1.18917
-1.40338
-1.71401
-0.0737703
41.0396
100.388
130.825
121.124
147.562
-1.80325
-1.76577
-1.72262
-1.67426
-1.62179
-1.56673
-1.51107
-1.45835
-1.41752
-1.40616
-1.46248
-1.69132
-2.18796
-2.20837
12.4401
38.6892
52.5139
62.9159
122.047
-1.94807
-1.91504
-1.87754
-1.83564
-1.78968
-1.74058
-1.69052
-1.64364
-1.60806
-1.60516
-1.64731
-1.69434
-1.75626
-2.05347
-0.268522
26.4544
42.9998
70.3207
115.812
-2.09805
-2.06992
-2.03796
-2.00219
-1.96242
-1.91928
-1.87484
-1.83385
-1.80259
-1.79026
-1.8092
-1.81079
-1.73477
-1.55781
1.84367
43.5485
74.9046
96.871
112.758
-2.25393
-2.22999
-2.20354
-2.17397
-2.14089
-2.10478
-2.068
-2.03516
-2.01366
-2.00702
-2.02573
-2.07706
-2.11307
-1.98884
-1.64427
33.5525
77.4918
97.6699
108.432
-2.41249
-2.39399
-2.37367
-2.35111
-2.32582
-2.29838
-2.27255
-2.25199
-2.24378
-2.25584
-2.28548
-2.35562
-2.40379
-2.35773
-1.89332
35.4366
73.8165
93.1758
101.512
-2.57378
-2.56078
-2.54704
-2.53234
-2.51657
-2.50147
-2.48887
-2.48408
-2.49281
-2.52526
-2.57803
-2.66519
-2.74702
-2.66136
3.02207
25.4987
44.2035
69.5124
85.4533
-2.73673
-2.72927
-2.72241
-2.71622
-2.71144
-2.71013
-2.71449
-2.7283
-2.7569
-2.81155
-2.90369
-3.05122
-3.25489
-3.76213
-3.71431
-1.99121
5.66318
32.5789
57.6428
-2.90016
-2.89811
-2.89818
-2.90096
-2.90812
-2.9222
-2.94447
-2.9768
-3.02404
-3.09824
-3.22096
-3.41787
-3.70917
-4.10614
-4.33913
-4.13677
-2.05828
19.4846
30.0588
-3.06284
-3.06577
-3.07239
-3.08388
-3.10317
-3.13248
-3.1713
-3.21847
-3.27786
-3.36158
-3.49076
-3.68585
-3.9661
-4.36372
-4.84779
-4.83205
-4.06514
-2.49682
3.2973
-3.22358
-3.23072
-3.2432
-3.26203
-3.29246
-3.33502
-3.38809
-3.44395
-3.50859
-3.59192
-3.7095
-3.87361
-4.10992
-4.55562
-4.98286
-4.97627
-4.508
-4.80796
-0.8793
-3.38127
-3.39114
-3.40769
-3.43382
-3.47295
-3.52629
-3.5884
-3.65217
-3.72026
-3.7955
-3.88537
-3.99246
-4.10828
-4.33779
-4.55766
-4.51629
-4.35527
-4.19495
-0.786358
-3.5354
-3.54597
-3.56441
-3.59623
-3.64116
-3.70466
-3.774
-3.84854
-3.9204
-3.98479
-4.03696
-4.07485
-4.05448
-4.03559
-4.0264
-3.97433
-4.06652
-3.77337
-0.346682
-3.68666
-3.69554
-3.7121
-3.74411
-3.79685
-3.86863
-3.94768
-4.03111
-4.10602
-4.16463
-4.18618
-4.17086
-4.07884
-3.94449
-3.86788
-3.77001
-3.57543
-2.10856
1.28831
-3.83806
-3.84395
-3.85532
-3.883
-3.94124
-4.02525
-4.11483
-4.19161
-4.26173
-4.31591
-4.31888
-4.28673
-4.20036
-4.08328
-4.09582
-4.29296
-3.51734
0.0149891
4.47061
-3.99605
-4.00226
-4.01001
-4.03169
-4.09898
-4.21557
-4.30147
-4.33943
-4.37326
-4.40578
-4.40059
-4.36451
-4.31042
-4.31167
-4.05078
-3.98158
-1.6309
0.39899
5.81527
-4.16835
-4.18602
-4.20122
-4.22323
-4.29855
-4.45226
-4.52268
-4.51743
-4.4604
-4.44853
-4.43479
-4.41901
-4.40373
-4.629
-4.73649
-1.19938
0.340901
0.323559
1.55523
-4.35294
-4.39229
-4.426
-4.45482
-4.52346
-4.67471
-4.76202
-4.72146
-4.57168
-4.50442
-4.46784
-4.46766
-4.45531
-4.55013
-4.42629
0.0559655
0.988449
0.839501
1.83666
-4.53134
-4.5912
-4.6385
-4.66266
-4.69922
-4.81731
-4.94261
-4.88705
-4.72338
-4.58921
-4.49833
-4.42331
-4.41981
-4.42147
-3.95395
0.648555
1.68018
1.51882
2.65209
-4.67703
-4.73961
-4.78253
-4.79148
-4.79017
-4.85964
-4.98783
-4.96379
-4.8262
-4.64909
-4.499
-4.35835
-4.33236
-4.23866
-3.52882
1.23799
2.28825
2.19275
3.40531
-4.79166
-4.83338
-4.85776
-4.84631
-4.8113
-4.82555
-4.9118
-4.93684
-4.83951
-4.66079
-4.48104
-4.29724
-4.24871
-4.09727
-2.86446
1.68028
2.92625
2.87732
4.16158
-4.88916
-4.90405
-4.90539
-4.87688
-4.82171
-4.78868
-4.80497
-4.81988
-4.76572
-4.63503
-4.46776
-4.28441
-4.20921
-4.01955
-2.45367
2.1526
3.80928
3.57362
4.6274
-4.99229
-4.98983
-4.97504
-4.93987
-4.88103
-4.82512
-4.78255
-4.74201
-4.70306
-4.64654
-4.56009
-4.43967
-4.32432
-4.35849
-4.16317
2.6333
5.05771
4.49532
5.41304
-5.10877
-5.09825
-5.07796
-5.04417
-4.99663
-4.94357
-4.88746
-4.82979
-4.7724
-4.75032
-4.75187
-4.70685
-4.59201
-4.64015
-4.56249
3.63825
6.86612
5.98825
9.38097
-5.23664
-5.22489
-5.20633
-5.1792
-5.14397
-5.10377
-5.0607
-5.01147
-4.96492
-4.93648
-4.94916
-4.91292
-4.71997
-4.87963
-5.20621
0.964341
6.52572
7.44931
11.9992
-5.37267
-5.36312
-5.3495
-5.32965
-5.30447
-5.27502
-5.24358
-5.21129
-5.18283
-5.15659
-5.16982
-5.19896
-5.13674
-5.27447
-4.86491
-1.22598
6.69957
7.34376
21.1279
-5.51319
-5.50709
-5.49837
-5.48632
-5.47116
-5.45355
-5.4352
-5.4157
-5.39969
-5.38186
-5.39829
-5.46395
-5.4956
-5.43491
-5.45933
-3.94284
-0.0701221
8.36489
-9.14947
-5.65645
-5.65448
-5.6515
-5.64738
-5.64209
-5.63584
-5.62878
-5.62408
-5.61868
-5.61549
-5.61199
-5.61791
-5.65049
-5.78566
-6.09636
-6.20435
-6.93904
-7.9112
-49.9144
)
;

boundaryField
{
    leftWall
    {
        type            calculated;
        value           nonuniform List<scalar> 
50
(
693.424
633.988
573.73
513.146
452.856
393.55
335.78
280.355
196.796
92.0317
24.6471
-0.231092
-0.321508
-0.441804
-0.584627
-0.72589
-0.870639
-1.01638
-1.1622
-1.30817
-1.45421
-1.60028
-1.7463
-1.89227
-2.03817
-2.18398
-2.32968
-2.47527
-2.62075
-2.76612
-2.9114
-3.05658
-3.20168
-3.3467
-3.49164
-3.63651
-3.78131
-3.92603
-4.07067
-4.21522
-4.35971
-4.50414
-4.64849
-4.79278
-4.93705
-5.08138
-5.22568
-5.36976
-5.51337
-5.65746
)
;
    }
    rightWall
    {
        type            calculated;
        value           nonuniform List<scalar> 
50
(
1589.65
1509.27
1230.4
863.942
606.401
397.617
262.667
232.819
232.073
234.137
234.78
241.465
285.263
379.815
538.693
715.608
796.389
709.868
488.972
292.579
195.628
165.691
147.562
122.047
115.812
112.758
108.432
101.512
85.4533
57.6428
30.0588
3.2973
-0.8793
-0.786358
-0.346682
1.28831
4.47061
5.81527
1.55523
1.83666
2.65209
3.40531
4.16158
4.6274
5.41304
9.38097
11.9992
21.1279
-9.14947
-49.9144
)
;
    }
    lowerWall
    {
        type            calculated;
        value           nonuniform List<scalar> 
62
(
722.853
720.408
725.002
733.852
742.88
749.182
752.377
754.976
759.457
767.015
777.879
792.022
809.163
829.202
851.94
876.966
903.12
928.259
946.923
957.717
942.73
937.639
986.725
957.335
891.639
831.783
783.134
741.432
697.434
636.442
559.862
307.621
459.769
471.707
263.062
239.186
239.117
239.037
238.949
238.856
238.764
238.682
238.61
239.216
239.253
239.343
239.498
239.73
240.047
240.454
240.939
241.093
240.094
239.121
239.895
242.42
246.912
252.741
308.136
542.106
1125.95
1591.85
)
;
    }
    atmosphere
    {
        type            calculated;
        value           nonuniform List<scalar> 
46
(
-5.72976
-5.73002
-5.72995
-5.72998
-5.72994
-5.72991
-5.72987
-5.72982
-5.72976
-5.72969
-5.72962
-5.72954
-5.72947
-5.72939
-5.72932
-5.72925
-5.7292
-5.72915
-5.72911
-5.72908
-5.72906
-5.72905
-5.72904
-5.72904
-5.72904
-5.72905
-5.72909
-5.72921
-5.72936
-5.7295
-5.72956
-5.72945
-5.72918
-5.72904
-5.72904
-5.72904
-5.72904
-5.72904
-5.73318
-5.75355
-5.85132
-6.25524
-6.65235
-7.36392
-9.78652
-581.63
)
;
    }
    defaultFaces
    {
        type            empty;
    }
}


// ************************************************************************* //
