/*--------------------------------*- C++ -*----------------------------------*\
| =========                 |                                                 |
| \\      /  F ield         | OpenFOAM: The Open Source CFD Toolbox           |
|  \\    /   O peration     | Version:  2206                                  |
|   \\  /    A nd           | Website:  www.openfoam.com                      |
|    \\/     M anipulation  |                                                 |
\*---------------------------------------------------------------------------*/
FoamFile
{
    version     2.0;
    format      ascii;
    arch        "LSB;label=32;scalar=64";
    class       volScalarField;
    location    "0.475";
    object      p_rgh;
}
// * * * * * * * * * * * * * * * * * * * * * * * * * * * * * * * * * * * * * //

dimensions      [1 -1 -2 0 0 0 0];

internalField   nonuniform List<scalar> 
2268
(
722.853
720.408
725.002
733.852
742.88
749.182
752.377
754.976
759.457
767.015
777.879
792.022
809.163
829.202
851.94
876.966
903.12
928.259
946.923
957.717
942.73
937.639
986.725
722.276
719.153
723.543
732.294
741.421
747.854
751.156
753.867
758.484
766.167
777.104
791.106
808.07
827.823
850.171
874.814
900.954
927.04
948.178
963.491
940.682
925.076
979.808
720.876
717.011
720.75
729.263
738.541
745.241
748.751
751.681
756.567
764.501
775.614
789.758
806.819
826.594
848.771
872.823
897.863
922.764
944.32
961.381
936.928
918.577
978.731
719.152
714.216
716.704
724.946
734.37
741.47
745.28
748.524
753.794
762.083
773.454
787.769
804.914
824.694
846.785
870.605
895.125
919.038
939.842
956.026
950.478
939.986
988.907
717.72
711.209
711.914
719.129
728.985
736.691
740.871
744.499
750.26
758.992
770.669
785.175
802.435
822.282
844.407
868.189
892.61
916.246
936.933
953.507
961.978
962.251
1006.2
717.273
708.583
706.424
712.03
722.493
731.076
735.665
739.668
745.981
755.236
767.274
782.005
799.415
819.373
841.642
865.568
890.14
913.946
935.179
952.954
966.857
977.771
1021.02
718.362
706.16
700.813
704.495
715.442
724.868
729.857
734.244
741.087
750.827
763.206
778.176
795.832
815.959
838.488
862.712
887.643
911.883
933.927
952.876
969.221
984.516
1018.86
721.795
707.404
697.11
697.858
708.416
717.918
723.237
728.381
736.008
746.231
758.803
773.803
791.55
811.952
835.047
859.82
885.322
910.126
932.979
952.865
969.402
985.062
1001.11
239.216
239.253
239.343
239.498
239.73
240.047
240.454
240.939
241.093
240.094
239.121
239.895
242.42
246.912
252.741
308.136
542.106
1125.95
1591.85
239.205
239.238
239.325
239.475
239.702
240.019
240.439
240.995
241.469
240.647
238.984
235.49
228.863
226.891
228.328
258.71
407.534
949.924
1545.31
239.185
239.209
239.286
239.425
239.637
239.942
240.366
240.996
241.896
241.54
237.568
221.383
216.055
221.649
226.485
234.098
279.226
550.438
1328.75
239.155
239.162
239.228
239.349
239.536
239.81
240.189
240.744
241.678
241.129
233.524
211.991
211.597
219.252
226.14
230.628
245.817
323.185
1001.72
239.121
239.097
239.149
239.25
239.403
239.628
239.914
240.233
240.638
239.359
229.807
213.063
211.495
218.775
225.399
229.015
233.808
259.491
783.384
239.088
239.012
239.053
239.129
239.243
239.412
239.579
239.596
239.341
237.475
228.841
216.446
214.063
219.62
225.286
228.184
231.161
237.6
613.089
239.064
238.908
238.94
238.994
239.067
239.185
239.237
238.957
238.208
236.184
229.615
220.471
217.723
221.227
225.664
227.998
230.549
230.039
506.867
239.092
238.806
238.804
238.841
238.873
238.967
238.922
238.381
237.391
235.39
230.627
224.127
221.549
223.359
226.347
228.326
230.228
229.034
450.546
730.263
715.14
693.045
685.387
695.458
704.864
710.304
717.009
726.627
738.302
751.594
766.731
784.334
804.454
827.921
853.724
880.838
907.263
931.892
953.502
968.222
973.322
931.159
744.138
661.071
485.481
372.756
407.255
461.701
495.935
528.397
570.412
616.428
661.789
706.438
750.015
790.096
819.58
848.13
877.46
905.399
932.494
957.001
975.087
985.396
990.382
331.65
128.711
1.90072
1.12528
20.1166
32.1563
30.9934
38.5161
57.9395
86.9587
125.75
178.01
250.941
355.803
511.825
711.362
869.16
902.07
937.15
966.975
990.016
1011.37
1033.32
0.677959
0.552074
0.716428
0.839147
0.773374
0.781076
0.780826
0.774042
0.770834
0.782365
0.808331
0.837464
0.870404
0.928072
6.14645
46.0968
148.163
368.414
721.598
983.752
1010.34
1039.06
1063.37
0.712737
0.69349
0.81607
0.805554
0.724826
0.750112
0.752436
0.748821
0.744678
0.746683
0.756354
0.775724
0.808583
0.837238
0.867622
0.853601
0.93207
13.8214
61.9978
174.334
407.859
868.296
1105.75
0.717636
0.720419
0.754478
0.753938
0.730145
0.731283
0.731232
0.729393
0.728374
0.730525
0.735838
0.74194
0.736693
0.758745
0.948092
1.03605
1.22377
1.13596
1.23782
1.34216
11.7529
73.963
257.396
0.700007
0.702465
0.717826
0.719176
0.712366
0.710796
0.709771
0.708508
0.708115
0.709961
0.714273
0.720391
0.723956
0.804104
1.0544
1.06418
1.04023
1.0576
1.09292
1.09344
1.09528
1.21238
1.12894
0.683938
0.687091
0.692914
0.693123
0.691029
0.689568
0.688353
0.687098
0.686393
0.687125
0.68938
0.691209
0.687103
0.725136
0.665533
0.737052
0.686398
0.810843
1.09378
1.15531
1.10187
0.964594
0.818522
0.664385
0.666617
0.669316
0.669542
0.668779
0.667754
0.666629
0.665337
0.664184
0.663742
0.664413
0.664677
0.664752
0.654923
0.648066
0.64493
0.644754
0.634554
0.733874
0.716333
0.922062
0.847099
0.76191
0.643836
0.645538
0.646938
0.646998
0.646549
0.645756
0.644749
0.643495
0.642125
0.640899
0.640086
0.639051
0.637025
0.630884
0.624594
0.618016
0.608272
0.618375
0.848833
0.822418
0.610082
0.493001
0.446344
0.623212
0.624352
0.625036
0.624937
0.624525
0.62381
0.622874
0.621692
0.620299
0.618773
0.617159
0.61507
0.611969
0.607025
0.600405
0.591417
0.577655
0.602336
0.774919
0.89594
0.80738
0.453698
0.492759
0.602434
0.603133
0.603407
0.603186
0.60273
0.602017
0.601091
0.599939
0.598556
0.596927
0.594994
0.592459
0.588975
0.58388
0.576822
0.566983
0.553113
0.530787
0.490631
0.712506
0.928288
0.91956
0.952495
0.581589
0.581978
0.581996
0.581674
0.581161
0.58042
0.579471
0.578305
0.5769
0.575194
0.573105
0.570366
0.566703
0.561623
0.554688
0.545234
0.53243
0.51341
0.484031
0.441017
0.407114
0.78166
0.963918
0.560714
0.560913
0.560765
0.560369
0.559808
0.559035
0.558059
0.556864
0.55542
0.553665
0.551492
0.548714
0.545092
0.540269
0.533911
0.525573
0.514644
0.499856
0.479669
0.45327
0.424544
0.405527
0.439476
0.53989
0.539915
0.539689
0.539251
0.538657
0.537865
0.536872
0.535662
0.5342
0.532429
0.530255
0.527539
0.524101
0.519713
0.514147
0.507137
0.49833
0.487275
0.473719
0.458276
0.443954
0.43699
0.442669
0.519115
0.519031
0.518764
0.518307
0.517696
0.516898
0.515907
0.514702
0.513255
0.511514
0.509407
0.506835
0.503674
0.499781
0.495021
0.48926
0.482368
0.474291
0.465236
0.456063
0.448962
0.447229
0.45293
0.498409
0.498274
0.497987
0.497525
0.496912
0.496122
0.495147
0.49397
0.492566
0.490895
0.488904
0.486528
0.483686
0.480303
0.476312
0.471673
0.46639
0.460587
0.454629
0.449348
0.446178
0.446695
0.45184
0.477796
0.477643
0.477352
0.476894
0.476292
0.475521
0.474576
0.473444
0.472104
0.470528
0.468682
0.466523
0.464006
0.461102
0.457794
0.454104
0.450115
0.446024
0.442202
0.439291
0.43822
0.439884
0.444832
0.45729
0.457135
0.45685
0.456404
0.45582
0.455077
0.454173
0.453096
0.451835
0.450368
0.448675
0.446732
0.444522
0.442041
0.439308
0.436377
0.433359
0.430459
0.428004
0.426483
0.426504
0.4286
0.433132
0.436894
0.436746
0.436474
0.436044
0.435484
0.434775
0.433917
0.432903
0.431725
0.430371
0.428828
0.427087
0.425148
0.423025
0.420756
0.418407
0.416097
0.414013
0.41242
0.411673
0.412184
0.414299
0.418275
0.416608
0.416471
0.416216
0.415803
0.415271
0.414598
0.41379
0.412841
0.411746
0.410499
0.409095
0.407533
0.405824
0.40399
0.402077
0.400154
0.398331
0.396763
0.39566
0.395275
0.395894
0.39775
0.401019
0.396428
0.396303
0.396065
0.395672
0.395168
0.394533
0.393775
0.392888
0.391872
0.390723
0.389441
0.388032
0.386509
0.384899
0.383247
0.381618
0.380106
0.378835
0.377962
0.377667
0.378148
0.379562
0.382023
0.376348
0.376235
0.376014
0.37564
0.375166
0.374568
0.373857
0.373029
0.372084
0.371021
0.369843
0.368557
0.367179
0.365734
0.364263
0.362822
0.361485
0.360349
0.359526
0.359141
0.359329
0.360191
0.361793
0.35636
0.35626
0.356055
0.355701
0.355255
0.354693
0.354026
0.353251
0.352369
0.351379
0.350286
0.349098
0.347828
0.346497
0.345141
0.343804
0.342543
0.341426
0.340533
0.339945
0.339748
0.340004
0.34074
0.336457
0.336371
0.336182
0.335847
0.335428
0.334899
0.334272
0.333545
0.332717
0.331789
0.330764
0.329649
0.328455
0.327198
0.325906
0.324612
0.323354
0.32218
0.321141
0.320282
0.319656
0.319293
0.319196
0.316633
0.316561
0.316389
0.316073
0.315679
0.315181
0.31459
0.313904
0.313123
0.312246
0.311275
0.310214
0.309071
0.307857
0.306591
0.305296
0.303995
0.302716
0.301485
0.300323
0.299256
0.298291
0.297414
0.296883
0.296826
0.296671
0.296374
0.296004
0.295534
0.294976
0.294326
0.293585
0.29275
0.291821
0.2908
0.289689
0.288496
0.287232
0.285909
0.284536
0.283125
0.281682
0.280209
0.278708
0.277171
0.275574
0.277206
0.277161
0.277024
0.276746
0.276399
0.275956
0.275427
0.27481
0.274103
0.273302
0.272408
0.271415
0.270326
0.269142
0.267865
0.266499
0.265041
0.263488
0.26183
0.260052
0.258136
0.25606
0.253798
0.257604
0.257564
0.257448
0.257187
0.256862
0.256444
0.255943
0.255355
0.254677
0.253907
0.25304
0.252072
0.250998
0.249816
0.248521
0.247107
0.245563
0.243872
0.242011
0.239947
0.237644
0.235063
0.232167
0.238079
0.238039
0.237944
0.237697
0.237395
0.237
0.236524
0.235963
0.235313
0.23457
0.233729
0.232782
0.231722
0.230541
0.229229
0.227771
0.226149
0.224335
0.222294
0.219976
0.217322
0.214273
0.210765
0.218638
0.218585
0.218514
0.218278
0.218
0.217625
0.217174
0.216638
0.216015
0.215299
0.214483
0.213558
0.212514
0.211338
0.210016
0.208527
0.206844
0.204932
0.202742
0.20021
0.197258
0.193797
0.189727
0.199273
0.199205
0.199156
0.198925
0.198672
0.198316
0.19789
0.19738
0.196785
0.196098
0.19531
0.194411
0.193387
0.192226
0.190906
0.189403
0.187683
0.185705
0.183408
0.180716
0.177531
0.173746
0.169321
0.179978
0.179891
0.179862
0.179632
0.179404
0.179067
0.178668
0.178186
0.177621
0.176966
0.176211
0.175345
0.174352
0.173217
0.171916
0.170419
0.168691
0.166683
0.16433
0.161541
0.158191
0.15405
0.148611
0.160745
0.160646
0.160633
0.160401
0.160201
0.159882
0.159511
0.159061
0.158531
0.157913
0.157198
0.156373
0.155422
0.154328
0.153063
0.151597
0.149893
0.1479
0.145546
0.142735
0.139337
0.135058
0.129969
0.141588
0.141484
0.141484
0.141248
0.141078
0.140778
0.140439
0.140024
0.139536
0.138964
0.138298
0.137527
0.136634
0.135599
0.134397
0.132996
0.13136
0.129438
0.127158
0.124426
0.121117
0.117191
0.112371
0.122495
0.122383
0.122394
0.122152
0.122014
0.121737
0.121435
0.121064
0.120624
0.120108
0.119506
0.118804
0.117987
0.117037
0.115927
0.11463
0.113111
0.111326
0.109218
0.106717
0.10373
0.100136
0.0958245
0.10342
0.103274
0.103305
0.103059
0.102956
0.102707
0.102448
0.102126
0.101745
0.101296
0.10077
0.100154
0.0994348
0.0985928
0.0976051
0.0964472
0.095091
0.0935008
0.0916376
0.0894588
0.0869083
0.0837453
0.0800577
0.0842806
0.0841123
0.0841669
0.0839205
0.0838538
0.0836371
0.0834215
0.0831522
0.0828334
0.0824569
0.0820132
0.0814914
0.0808779
0.0801553
0.0793036
0.0783009
0.0771216
0.0757353
0.0741099
0.0722148
0.0700325
0.0677346
0.0646251
0.0651788
0.0650103
0.0650845
0.0648537
0.0648197
0.0646409
0.0644711
0.0642582
0.0640053
0.0637051
0.0633489
0.0629273
0.0624288
0.0618371
0.0611334
0.0602986
0.0593112
0.0581464
0.0567776
0.0551742
0.0533074
0.0511501
0.048991
0.0462971
0.0461283
0.0462056
0.0460124
0.0460094
0.0458783
0.0457606
0.0456113
0.0454331
0.0452202
0.0449662
0.0446627
0.0442988
0.0438612
0.0433363
0.0427102
0.041967
0.0410876
0.0400553
0.0388626
0.0375139
0.0360661
0.0347372
0.02788
0.0276866
0.0277806
0.027636
0.0276604
0.0275918
0.0275411
0.0274762
0.0273995
0.0273073
0.0271939
0.0270531
0.0268792
0.0266649
0.0264017
0.0260821
0.0256984
0.0252446
0.0247202
0.0241334
0.0235129
0.0229292
0.0224955
0.00897954
0.00880207
0.00887812
0.00879817
0.00883474
0.00882931
0.0088421
0.00885727
0.00887494
0.00889181
0.00890505
0.00891321
0.00891374
0.00890164
0.00887281
0.00882591
0.00875909
0.00866889
0.00855688
0.00843165
0.00830581
0.00820236
0.00814764
778.489
921.512
864.047
389.133
966.531
990.183
957.622
429.415
1036.98
1055.05
969.137
342.202
1085.49
1120.87
1034.53
317.838
1136.17
1182.77
1212.84
412.392
904.884
1242.47
1307.98
898.626
104.086
642.576
1333.94
1414.13
0.489396
2.46945
386.824
1273.51
0.218567
0.421329
-0.172426
181.092
0.476831
0.532338
0.443329
0.618091
0.58605
0.649939
0.94174
0.896642
1.07037
1.11879
1.09582
0.701917
0.933058
0.964151
0.600396
0.582143
0.503042
0.505376
0.532182
0.584728
0.462728
0.493397
0.531346
0.576334
0.467711
0.492924
0.525573
0.566208
0.463737
0.485674
0.514481
0.551104
0.455115
0.473936
0.499031
0.531237
0.441961
0.457912
0.479162
0.505988
0.425696
0.438903
0.456369
0.478209
0.406981
0.417461
0.431143
0.44785
0.386486
0.394269
0.40421
0.415843
0.364766
0.369945
0.376316
0.383123
0.342283
0.345039
0.348156
0.350614
0.31941
0.319999
0.320303
0.319145
0.296427
0.295142
0.293163
0.289332
0.273509
0.270623
0.266855
0.261347
0.250742
0.246425
0.241153
0.234625
0.228149
0.222392
0.215435
0.20753
0.205747
0.19836
0.188938
0.177468
0.183623
0.174436
0.161305
0.142386
0.161869
0.150008
0.133247
0.104004
0.141211
0.12798
0.107532
0.0701581
0.122222
0.108672
0.0870799
0.049992
0.105038
0.092797
0.0737987
0.0438468
0.0894921
0.0796418
0.0659549
0.0470068
0.0750331
0.0679882
0.0597388
0.0515598
0.0609334
0.0564769
0.0525452
0.0515974
0.0467246
0.044326
0.0432613
0.0459571
0.0323649
0.0312248
0.0321423
0.0358067
0.0219436
0.0214704
0.0211232
0.0232713
0.00810788
0.007888
0.00769532
0.00837871
239.048
238.323
238.533
238.604
238.596
238.72
238.524
237.628
236.452
234.756
231.832
228.195
226.229
226.53
227.887
229.284
230.432
230.038
498.666
235.036
236.812
237.592
237.733
237.855
239.464
237.703
236.336
235.604
234.533
232.609
230.401
229.094
228.968
229.618
230.497
231.107
231.013
699.546
235.716
236.211
236.529
236.464
235.878
240.113
273.011
235.163
235.288
234.404
232.926
231.2
230.377
230.347
230.685
231.206
231.497
232.017
882.919
236.113
236.085
236.127
235.889
235.351
234.334
307.332
236.207
236.472
234.107
231.74
230.78
230.829
231.08
231.177
231.432
231.433
271.023
1047.26
236.042
236.066
236.14
235.999
235.724
235.413
311.827
237.639
233.259
474.096
264.038
230.325
230.839
231.295
231.432
231.427
231.587
733.828
1239.09
236.205
236.18
236.121
236.086
235.725
234.972
233.578
232.457
313.503
1068.27
842.309
246.605
290.347
264.325
231.361
231.455
285.306
1210.57
1451.73
988.273
466.557
519.738
716.605
733.533
508.317
435.45
492.829
913.477
1301.68
1316.78
1351.57
1396.22
1183.49
353.836
290.796
938.951
1526.5
1726.68
1329.6
1340.5
1335.74
1337.29
1351.91
1374.22
1383.25
1422.08
1432.21
1400.85
1406.58
1438.71
1473.08
1493.43
1397.66
1374.3
1589.96
1823.52
2019.42
553.979
880.149
1148.58
1330.34
1355.59
1333.69
1300.57
1272.76
1224.93
1128.29
1037.66
1037.91
1114.5
1391.69
1552.21
1672.06
1852.88
2053.05
2215.98
0.827997
43.3136
149.093
281.154
328.467
311.379
276.608
229.455
170.935
108.045
69.4033
70.8276
91.4492
176.126
400.024
1070.37
1856.34
2100.89
2245.23
0.656133
0.559164
0.684356
0.896202
1.05764
1.15031
1.21439
1.27403
1.32367
1.3774
1.44402
1.49961
1.57227
1.98207
5.36164
157.521
1128.67
2018.8
2140.05
0.633383
0.604496
0.698397
0.814025
0.921047
1.01603
1.10531
1.19262
1.28007
1.38026
1.50768
1.64214
1.87723
2.18011
3.3355
48.529
1229.66
1975.4
1870.95
0.628055
0.662316
0.726699
0.809499
0.895087
0.977312
1.05762
1.14006
1.23098
1.3481
1.49254
1.57657
1.638
2.34596
29.5111
580.776
1851.58
2022.31
1853.29
0.629816
0.670611
0.72683
0.793601
0.86468
0.935944
1.00645
1.07745
1.15332
1.23035
1.27025
1.25686
1.3124
135.57
1129.62
1901.42
2111.04
2127.08
2018.76
0.621656
0.662581
0.711865
0.767988
0.828341
0.892418
0.956766
1.01368
1.06938
1.11585
1.103
1.00293
2.45647
784.299
2082.88
2190.91
2221.39
2211.7
2238.13
0.608148
0.645627
0.688769
0.737129
0.789604
0.847186
0.906048
0.957981
0.994272
1.00571
0.95074
0.75428
0.795128
206.821
1652.43
2243.71
2257.57
2267.96
2327.1
0.588519
0.621555
0.65907
0.700956
0.74691
0.796073
0.849151
0.89835
0.92998
0.932706
0.890894
0.850563
0.93266
67.1001
1393.75
2309.61
1363.9
893.045
1064.07
0.563737
0.591924
0.623941
0.659686
0.699361
0.742509
0.787264
0.831039
0.860348
0.873508
0.85461
0.855935
1.0443
87.9377
1472.03
2292.44
800.732
533.096
539.493
0.533106
0.55711
0.583558
0.613126
0.646102
0.682198
0.720265
0.753833
0.77453
0.782549
0.76368
0.713563
0.740387
47.4137
1403.42
2354.68
1724.84
583.485
555.238
0.499715
0.518252
0.5386
0.561115
0.586396
0.613795
0.640292
0.662212
0.671016
0.659334
0.655823
0.585813
0.5775
21.9626
1247.18
2417.99
1899.15
658.607
568.389
0.463576
0.476578
0.49032
0.505013
0.520816
0.536379
0.548712
0.554152
0.546194
0.513203
0.574887
0.455501
0.390419
29.4304
721.86
1214.57
1234.4
713.236
743.931
0.425822
0.433286
0.440147
0.446332
0.451118
0.453885
0.448842
0.434525
0.405855
0.351201
0.358012
0.196966
0.192075
10.2015
16.8129
58.3921
520.553
1242.4
1267.41
0.387588
0.389646
0.389577
0.386789
0.379626
0.36648
0.34523
0.311451
0.263906
0.189706
0.0798125
-0.0868857
-0.0269744
6.79397
-0.00850278
-0.240526
40.9214
1016.47
1287.79
0.3501
0.347175
0.340566
0.329062
0.30996
0.28052
0.256307
0.195348
0.135286
0.0515638
-0.0776085
-0.270181
-0.541261
6.86087
2.16296
-0.818118
-0.0462934
37.4796
1308.84
0.314556
0.307416
0.294944
0.276128
0.246161
0.203196
0.171103
0.0961971
0.0297643
-0.0535721
-0.171153
-0.33514
-0.570925
5.64697
0.986028
-0.815069
-0.346812
33.4534
1295.02
0.282058
0.272193
0.255645
0.229543
0.190869
0.137104
0.08891
0.142986
0.0846235
-0.131932
-0.221701
-0.328655
-0.44172
1.98443
0.802901
-0.207851
-0.041585
83.2993
1265.41
0.253121
0.242553
0.224112
0.192309
0.147462
0.083932
0.0445322
0.140038
0.0694754
-0.0265524
-0.193949
-0.128979
-0.259849
0.0858593
0.603104
0.442094
0.406289
88.272
1299.31
0.227058
0.218183
0.201619
0.169621
0.116992
0.0451656
-0.0136307
-0.0105304
0.0164357
-0.0417177
-0.0716134
0.00459469
0.0585077
-0.0180087
0.171179
0.295633
1.29866
58.9095
1301.31
0.20085
0.194979
0.184035
0.156048
0.0982503
0.014025
-0.073094
-0.144902
-0.00693022
-0.0611092
-0.17023
0.0222924
0.108663
-0.0359249
-0.0438692
42.4355
76.7684
20.887
1261.85
0.168056
0.161848
0.156174
0.245644
0.450401
0.317244
-0.121195
-0.169576
-0.0808302
-0.0192048
-0.125027
-0.0311736
0.130322
-0.139759
0.121797
156.254
151.864
14.8013
1216.25
0.120958
0.103294
0.0893254
0.602226
1.00306
0.84867
0.0910566
-0.222205
-0.155605
0.0182438
-0.0160797
-0.0629864
-0.0176617
-0.33394
122.001
184.796
44.355
14.5822
1136.52
0.0615572
0.0222268
-0.00855651
0.52128
0.931356
0.781678
0.692133
-0.271904
-0.155685
-0.0611271
0.10103
0.0131641
-0.0384952
-0.131137
192.431
194.76
18.8422
15.4876
1010.61
0.00835493
-0.051506
-0.0987988
-0.103158
0.339161
0.791517
0.666075
-0.0870685
-0.182324
-0.0471922
0.200012
0.193652
0.121082
11.7535
204.868
177.066
19.337
16.5833
781.3
-0.0121435
-0.074721
-0.117642
-0.126591
-0.125275
0.0791886
0.443055
-0.232805
-0.160178
0.0179405
0.305316
0.344276
0.333201
23.4999
213.936
186.215
20.9886
17.6717
808.087
-0.00158244
-0.0433004
-0.0676755
-0.0562277
-0.0212219
-0.0354558
-0.121506
-0.0685007
-0.0484089
0.13136
0.31892
0.494575
0.541961
51.1021
223.104
208.111
25.2413
18.7726
1024.08
0.0261156
0.0112223
0.00988103
0.038392
0.0935639
0.126611
0.134242
0.182849
0.150564
0.281186
0.447861
0.631432
0.706649
91.0023
232.146
237.859
33.9943
19.9551
1105.23
0.0481751
0.0506376
0.0654336
0.100603
0.159438
0.215356
0.27883
0.388751
0.401169
0.394282
0.48064
0.601333
0.716703
27.8933
234.506
263.467
42.0659
21.8596
1133.37
0.0568909
0.0674117
0.0876998
0.121499
0.169035
0.222097
0.27821
0.357323
0.45889
0.425088
0.414039
0.459414
0.574261
0.526149
231.048
297.471
72.7354
23.8029
862.299
0.054215
0.065968
0.084533
0.111661
0.146888
0.187088
0.230159
0.279444
0.32959
0.361232
0.341947
0.379241
0.571546
0.4129
264.042
301.918
163.61
25.8617
420.801
0.043388
0.0529321
0.0665562
0.0864084
0.111588
0.141036
0.172473
0.204764
0.233226
0.259508
0.246232
0.649245
0.281027
13.8281
69.0702
306.849
208.866
81.2351
834.289
0.0280547
0.0341546
0.0428832
0.054926
0.070093
0.0876949
0.106047
0.125551
0.14156
0.159387
0.142964
0.527736
0.255708
0.106337
0.0819144
82.7267
159.059
241.513
826.452
0.00999104
0.0119659
0.0149422
0.0190594
0.0243524
0.0306065
0.0376644
0.042358
0.047758
0.0509546
0.0544576
0.0526833
0.0159551
-0.119216
-0.429913
-0.537908
0.344424
1.76838
525.361
)
;

boundaryField
{
    leftWall
    {
        type            fixedFluxPressure;
        gradient        uniform 0;
        value           nonuniform List<scalar> 
50
(
722.853
722.276
720.876
719.152
717.72
717.273
718.362
721.795
730.263
744.138
331.65
0.677959
0.712737
0.717636
0.700007
0.683938
0.664385
0.643836
0.623212
0.602434
0.581589
0.560714
0.53989
0.519115
0.498409
0.477796
0.45729
0.436894
0.416608
0.396428
0.376348
0.35636
0.336457
0.316633
0.296883
0.277206
0.257604
0.238079
0.218638
0.199273
0.179978
0.160745
0.141588
0.122495
0.10342
0.0842806
0.0651788
0.0462971
0.02788
0.00897954
)
;
    }
    rightWall
    {
        type            fixedFluxPressure;
        gradient        uniform 0;
        value           nonuniform List<scalar> 
50
(
1591.85
1545.31
1328.75
1001.72
783.384
613.089
506.867
450.546
498.666
699.546
882.919
1047.26
1239.09
1451.73
1726.68
2019.42
2215.98
2245.23
2140.05
1870.95
1853.29
2018.76
2238.13
2327.1
1064.07
539.493
555.238
568.389
743.931
1267.41
1287.79
1308.84
1295.02
1265.41
1299.31
1301.31
1261.85
1216.25
1136.52
1010.61
781.3
808.087
1024.08
1105.23
1133.37
862.299
420.801
834.289
826.452
525.361
)
;
    }
    lowerWall
    {
        type            fixedFluxPressure;
        gradient        uniform 0;
        value           nonuniform List<scalar> 
62
(
722.853
720.408
725.002
733.852
742.88
749.182
752.377
754.976
759.457
767.015
777.879
792.022
809.163
829.202
851.94
876.966
903.12
928.259
946.923
957.717
942.73
937.639
986.725
986.725
979.808
978.731
988.907
1006.2
1021.02
1018.86
1001.11
778.489
921.512
864.047
389.133
239.216
239.205
239.185
239.155
239.121
239.088
239.064
239.092
239.216
239.253
239.343
239.498
239.73
240.047
240.454
240.939
241.093
240.094
239.121
239.895
242.42
246.912
252.741
308.136
542.106
1125.95
1591.85
)
;
    }
    atmosphere
    {
        type            totalPressure;
        rho             rho;
        psi             none;
        gamma           1;
        p0              uniform 0;
        value           nonuniform List<scalar> 
46
(
-0.000724842
-0.000984561
-0.000909194
-0.000937683
-0.000902714
-0.000873322
-0.000829331
-0.00077654
-0.000716026
-0.00064902
-0.000577111
-0.000502187
-0.000426425
-0.000352001
-0.000280821
-0.000214925
-0.000156111
-0.000106041
-6.57516e-05
-3.59309e-05
-1.6237e-05
-5.35508e-06
-9.70173e-07
0
-4.70121e-08
-8.15056e-06
-5.29207e-05
-0.000171706
-0.000315336
-0.000458388
-0.00052079
-0.000411064
-0.000144086
0
0
0
0
0
-0.00413933
-0.0245096
-0.12228
-0.5262
-0.923315
0
0
0
)
;
    }
    defaultFaces
    {
        type            empty;
    }
}


// ************************************************************************* //
