/*--------------------------------*- C++ -*----------------------------------*\
| =========                 |                                                 |
| \\      /  F ield         | OpenFOAM: The Open Source CFD Toolbox           |
|  \\    /   O peration     | Version:  2206                                  |
|   \\  /    A nd           | Website:  www.openfoam.com                      |
|    \\/     M anipulation  |                                                 |
\*---------------------------------------------------------------------------*/
FoamFile
{
    version     2.0;
    format      ascii;
    arch        "LSB;label=32;scalar=64";
    class       surfaceScalarField;
    location    "0.475";
    object      phi;
}
// * * * * * * * * * * * * * * * * * * * * * * * * * * * * * * * * * * * * * //

dimensions      [0 3 -1 0 0 0 0];

oriented        oriented;

internalField   nonuniform List<scalar> 
4432
(
-3.87233e-06
3.87233e-06
-4.90991e-06
1.03758e-06
-2.19759e-06
-2.71232e-06
2.77356e-06
-4.97115e-06
8.73474e-06
-5.96118e-06
1.44602e-05
-5.72548e-06
1.91828e-05
-4.72259e-06
2.26573e-05
-3.47452e-06
2.49781e-05
-2.32077e-06
2.6363e-05
-1.38487e-06
2.70211e-05
-6.58109e-07
2.70784e-05
-5.73474e-08
2.65295e-05
5.48945e-07
2.52386e-05
1.2909e-06
2.29142e-05
2.32439e-06
1.90777e-05
3.83648e-06
1.31941e-05
5.88359e-06
5.40334e-06
7.79076e-06
-1.87579e-06
7.27913e-06
-8.39193e-06
6.51614e-06
-1.66867e-05
8.29476e-06
-1.61406e-05
-5.46041e-07
-1.61406e-05
-4.08939e-06
7.96172e-06
-4.58947e-06
1.53766e-06
-1.76361e-06
-5.53818e-06
3.21147e-06
-9.94624e-06
9.11458e-06
-1.18643e-05
1.47641e-05
-1.1375e-05
1.94011e-05
-9.35953e-06
2.27996e-05
-6.87304e-06
2.50774e-05
-4.59856e-06
2.64653e-05
-2.77277e-06
2.71831e-05
-1.3759e-06
2.74312e-05
-3.05488e-07
2.73812e-05
5.98946e-07
2.71605e-05
1.51157e-06
2.67819e-05
2.70299e-06
2.60277e-05
4.59072e-06
2.41315e-05
7.77981e-06
1.94731e-05
1.24491e-05
1.06078e-05
1.61445e-05
-1.5849e-06
1.87088e-05
-1.05699e-05
1.72798e-05
-9.36092e-06
-1.75504e-06
-2.55016e-05
-3.57481e-06
1.15365e-05
-3.84e-06
1.80285e-06
-9.82346e-07
-8.39583e-06
3.82825e-06
-1.47568e-05
9.55201e-06
-1.75881e-05
1.50178e-05
-1.68409e-05
1.9447e-05
-1.37887e-05
2.26454e-05
-1.00715e-05
2.47803e-05
-6.73346e-06
2.61081e-05
-4.10056e-06
2.68428e-05
-2.11061e-06
2.71216e-05
-5.84307e-07
2.7032e-05
6.88566e-07
2.66191e-05
1.92444e-06
2.59623e-05
3.35978e-06
2.52479e-05
5.30516e-06
2.47751e-05
8.25255e-06
2.40155e-05
1.32087e-05
2.0487e-05
1.96729e-05
1.27434e-05
2.64525e-05
3.13256e-06
2.68906e-05
1.9673e-07
1.18079e-06
-2.53048e-05
-2.82764e-06
1.43642e-05
-2.74298e-06
1.71818e-06
3.94207e-08
-1.11782e-05
4.48488e-06
-1.92023e-05
9.93967e-06
-2.30428e-05
1.51954e-05
-2.20966e-05
1.939e-05
-1.79832e-05
2.23541e-05
-1.30356e-05
2.43257e-05
-8.70501e-06
2.55976e-05
-5.37245e-06
2.63763e-05
-2.88938e-06
2.67778e-05
-9.85739e-07
2.68551e-05
6.112e-07
2.66209e-05
2.15862e-06
2.60718e-05
3.90896e-06
2.5264e-05
6.11286e-06
2.44907e-05
9.02585e-06
2.44166e-05
1.32828e-05
2.45826e-05
1.95069e-05
2.30885e-05
2.79466e-05
1.87431e-05
3.1236e-05
9.94746e-06
9.97646e-06
-1.53574e-05
-1.84579e-06
1.621e-05
-1.24123e-06
1.11363e-06
1.21867e-06
-1.36381e-05
5.26003e-06
-2.32436e-05
1.03397e-05
-2.81226e-05
1.53046e-05
-2.70614e-05
1.92124e-05
-2.1891e-05
2.19238e-05
-1.5747e-05
2.3745e-05
-1.05262e-05
2.49927e-05
-6.62021e-06
2.58548e-05
-3.7515e-06
2.64152e-05
-1.54607e-06
2.6697e-05
3.29323e-07
2.66995e-05
2.15617e-06
2.64119e-05
4.19655e-06
2.58616e-05
6.66315e-06
2.51398e-05
9.74771e-06
2.47247e-05
1.36979e-05
2.54624e-05
1.87692e-05
2.71374e-05
2.62716e-05
2.62855e-05
3.20878e-05
1.6595e-05
1.9667e-05
1.23757e-06
-5.68144e-07
1.67781e-05
8.79741e-07
-3.34259e-07
3.24594e-06
-1.60043e-05
6.91853e-06
-2.69162e-05
1.14083e-05
-3.26124e-05
1.57421e-05
-3.13952e-05
1.91033e-05
-2.52523e-05
2.14396e-05
-1.80833e-05
2.3094e-05
-1.21805e-05
2.43561e-05
-7.88236e-06
2.5356e-05
-4.75139e-06
2.61226e-05
-2.31264e-06
2.66435e-05
-1.91577e-07
2.68825e-05
1.91718e-06
2.68279e-05
4.25116e-06
2.65298e-05
6.96119e-06
2.60877e-05
1.01898e-05
2.56514e-05
1.41342e-05
2.58099e-05
1.86107e-05
2.7589e-05
2.44926e-05
2.82666e-05
3.14102e-05
1.96746e-05
2.8259e-05
2.09122e-05
1.27792e-06
1.55002e-05
3.88668e-06
-2.94303e-06
7.0141e-06
-1.91318e-05
1.05703e-05
-3.04725e-05
1.40541e-05
-3.60961e-05
1.71073e-05
-3.44483e-05
1.94686e-05
-2.76136e-05
2.12084e-05
-1.98232e-05
2.25992e-05
-1.35714e-05
2.3834e-05
-9.11712e-06
2.49568e-05
-5.87414e-06
2.59299e-05
-3.2858e-06
2.67047e-05
-9.66341e-07
2.7209e-05
1.41289e-06
2.73831e-05
4.07701e-06
2.72836e-05
7.0607e-06
2.70398e-05
1.04335e-05
2.67774e-05
1.43967e-05
2.66014e-05
1.87867e-05
2.74363e-05
2.36577e-05
2.81161e-05
3.07304e-05
2.19312e-05
3.44439e-05
4.28434e-05
3.41999e-06
1.20802e-05
8.16722e-06
-7.69026e-06
1.30285e-05
-2.3993e-05
1.64477e-05
-3.38917e-05
1.82217e-05
-3.78701e-05
1.93276e-05
-3.55542e-05
2.04127e-05
-2.86987e-05
2.1544e-05
-2.09545e-05
2.2702e-05
-1.47293e-05
2.38802e-05
-1.02953e-05
2.50303e-05
-7.02428e-06
2.60746e-05
-4.33007e-06
2.69408e-05
-1.83252e-06
2.7607e-05
7.46668e-07
2.79779e-05
3.70605e-06
2.80996e-05
6.93906e-06
2.80457e-05
1.04874e-05
2.79415e-05
1.45009e-05
2.78176e-05
1.89105e-05
2.80196e-05
2.34558e-05
2.80587e-05
3.06912e-05
2.31622e-05
3.93404e-05
6.60056e-05
-6.86626e-07
6.86626e-07
-3.4488e-06
2.76255e-06
-9.58429e-06
6.13575e-06
-1.88366e-05
9.25248e-06
-3.05537e-05
1.17165e-05
-4.46342e-05
1.40804e-05
-6.04522e-05
1.58186e-05
-6.96017e-05
9.15012e-06
-5.66549e-05
-1.29472e-05
-5.99998e-05
3.34489e-06
-0.000161305
0.000101305
-0.000337067
0.000175761
-0.000492215
0.000155148
-0.000524278
3.20634e-05
-0.000468685
-5.55933e-05
-0.000409807
-5.88778e-05
-0.000333382
-7.64249e-05
-0.000156775
-0.000176607
-0.000156775
-5.19743e-06
5.88432e-06
-1.07029e-05
8.26815e-06
-1.77134e-05
1.31461e-05
-2.72882e-05
1.88275e-05
-3.96778e-05
2.41062e-05
-5.57943e-05
3.01974e-05
-7.81427e-05
3.81672e-05
-0.00011006
4.10672e-05
-0.000162077
3.90694e-05
-0.000269818
0.000111087
-0.000428365
0.000259852
-0.000555192
0.000302589
-0.000540231
0.000140187
-0.000395894
-0.000112273
-0.000292027
-0.000159461
-0.000255189
-9.57158e-05
-0.000188955
-0.000142659
-7.01276e-05
-0.000295435
-0.000226903
-6.0078e-06
1.18924e-05
-1.20466e-05
1.43069e-05
-1.90796e-05
2.01787e-05
-2.77492e-05
2.74969e-05
-3.86053e-05
3.49625e-05
-5.3301e-05
4.48939e-05
-7.78662e-05
6.27321e-05
-0.000127502
9.07029e-05
-0.000228311
0.000139878
-0.000379625
0.0002624
-0.000494355
0.000374582
-0.000497601
0.000305836
-0.00037762
2.02054e-05
-0.000289176
-0.000200717
-0.000281984
-0.000166653
-0.000239031
-0.000138668
-0.000156987
-0.000224703
-4.58105e-05
-0.000406611
-0.000272713
-4.5428e-06
1.64353e-05
-9.82192e-06
1.95858e-05
-1.6352e-05
2.67085e-05
-2.46494e-05
3.57944e-05
-3.46455e-05
4.49588e-05
-4.70638e-05
5.73124e-05
-6.79265e-05
8.35946e-05
-0.000111429
0.000134205
-0.000201197
0.000229646
-0.000321705
0.000382908
-0.000395546
0.000448423
-0.000361991
0.000272281
-0.000296987
-4.47983e-05
-0.000296396
-0.000201308
-0.000267708
-0.000195341
-0.000201426
-0.00020495
-0.000134591
-0.000291538
-4.02542e-05
-0.000500948
-0.000312967
-2.432e-06
1.88673e-05
-7.04315e-06
2.41966e-05
-1.27531e-05
3.24182e-05
-2.08741e-05
4.39158e-05
-3.01493e-05
5.42339e-05
-3.90874e-05
6.62505e-05
-5.21041e-05
9.66109e-05
-7.80354e-05
0.000160137
-0.000120632
0.000272242
-0.000174529
0.000436805
-0.00020491
0.000478804
-0.000170362
0.000237733
-0.00014741
-6.77507e-05
-0.000157289
-0.000191429
-0.000143822
-0.000208809
-9.48892e-05
-0.000253884
-6.63324e-05
-0.000320095
-2.90908e-05
-0.000538189
-0.000342058
-1.13085e-06
1.99982e-05
-4.93773e-06
2.80034e-05
-9.33525e-06
3.68154e-05
-1.73452e-05
5.19261e-05
-2.59508e-05
6.28391e-05
-3.03669e-05
7.06666e-05
-3.36428e-05
9.98875e-05
-4.29863e-05
0.00016948
-4.13763e-05
0.000270632
-1.88365e-05
0.000414265
-3.3582e-07
0.000460304
1.93766e-06
0.000235459
-1.30541e-05
-5.27591e-05
-2.45313e-05
-0.000179952
-2.78916e-05
-0.000205449
2.18681e-06
-0.000283962
1.44373e-05
-0.000332345
-1.68139e-05
-0.000506938
-0.000358872
3.60165e-07
1.9638e-05
-1.98673e-06
3.03504e-05
-5.92866e-06
4.0757e-05
-1.41968e-05
6.01941e-05
-2.27623e-05
7.14046e-05
-2.17115e-05
6.96158e-05
-1.48126e-05
9.2989e-05
-1.34762e-05
0.000168143
1.23467e-05
0.00024481
7.5563e-05
0.000351049
0.000142892
0.000392974
0.000151933
0.000226418
0.000103425
-4.25094e-06
6.89857e-05
-0.000145512
5.6573e-05
-0.000193036
5.62849e-05
-0.000283674
7.07789e-05
-0.000346839
-4.51962e-06
-0.00043164
-0.000363392
1.98503e-05
-2.12539e-07
2.91205e-06
4.7289e-05
-4.36462e-06
4.80332e-05
-1.17426e-05
6.75716e-05
-2.12661e-05
8.09283e-05
-1.33861e-05
6.17363e-05
1.68619e-06
7.79171e-05
9.56576e-06
0.000160264
3.66579e-05
0.000217717
0.000108441
0.000279265
0.000193836
0.000307579
0.000221093
0.000199162
0.000186323
3.05182e-05
0.000138898
-9.80864e-05
0.000111764
-0.000165902
8.54584e-05
-0.000257369
7.55105e-05
-0.000336891
9.04752e-06
-0.000365177
-0.000354344
1.53002e-05
-3.22005e-06
3.53898e-05
-2.77798e-05
5.04225e-05
-3.90257e-05
5.3626e-05
-3.70952e-05
4.96054e-05
-3.38494e-05
4.5599e-05
-3.15479e-05
4.47394e-05
-2.78391e-05
4.65722e-05
-2.27873e-05
4.97084e-05
-1.78656e-05
5.31554e-05
-1.37423e-05
5.63145e-05
-1.01834e-05
5.88704e-05
-6.88595e-06
6.08307e-05
-3.79284e-06
6.16996e-05
-1.22236e-07
6.20401e-05
3.36554e-06
6.22146e-05
6.76458e-06
6.23906e-05
1.03114e-05
6.25477e-05
1.43437e-05
6.31126e-05
1.83457e-05
6.4449e-05
2.21193e-05
6.78549e-05
2.72854e-05
7.63078e-05
3.08874e-05
4.89818e-05
9.33316e-05
2.5519e-05
-2.87391e-05
5.72219e-05
-5.94827e-05
6.94454e-05
-5.12492e-05
6.03603e-05
-2.80101e-05
4.76712e-05
-2.11603e-05
3.92248e-05
-2.31015e-05
3.66385e-05
-2.52527e-05
3.92841e-05
-2.54329e-05
4.49889e-05
-2.35704e-05
5.17376e-05
-2.0491e-05
5.80683e-05
-1.65141e-05
6.298e-05
-1.17976e-05
6.59165e-05
-6.72939e-06
6.76351e-05
-1.84081e-06
6.78175e-05
3.18315e-06
6.75691e-05
7.01295e-06
6.73779e-05
1.05027e-05
6.70139e-05
1.47076e-05
6.78465e-05
1.75131e-05
7.06509e-05
1.93149e-05
7.61225e-05
2.18138e-05
8.56023e-05
2.14077e-05
2.98817e-05
0.000104702
3.32061e-05
-6.19452e-05
6.10666e-05
-8.73432e-05
1.94893e-05
-9.67197e-06
-1.71463e-05
8.62551e-06
-2.88564e-06
-3.5421e-05
-2.83566e-06
-2.31515e-05
-5.34744e-06
-2.27409e-05
-3.18368e-06
-2.75966e-05
4.45213e-06
-3.12062e-05
1.49685e-05
-3.10073e-05
2.6485e-05
-2.80306e-05
3.81065e-05
-2.34192e-05
4.94149e-05
-1.80377e-05
5.97231e-05
-1.2149e-05
6.85396e-05
-5.63341e-06
7.33172e-05
2.23541e-06
7.27562e-05
1.10637e-05
6.88985e-05
1.85653e-05
6.79793e-05
1.84323e-05
7.02412e-05
1.70531e-05
7.44105e-05
1.76445e-05
8.00626e-05
1.57556e-05
1.60673e-05
9.38769e-05
3.7135e-06
-6.56587e-05
-1.70497e-05
-6.65801e-05
-1.96878e-05
-7.03385e-06
-1.07652e-05
-2.97024e-07
-1.94795e-05
-2.67066e-05
-2.27442e-05
-1.98867e-05
-2.71769e-05
-1.83082e-05
-3.37031e-05
-2.10703e-05
-4.20744e-05
-2.28349e-05
-5.11497e-05
-2.1932e-05
-6.21562e-05
-1.7024e-05
-7.47093e-05
-1.08661e-05
-8.0294e-05
-1.2453e-05
-6.15192e-05
-3.09238e-05
-1.12801e-05
-5.58724e-05
3.43963e-05
-4.3441e-05
5.24752e-05
-7.01518e-06
6.20616e-05
8.9789e-06
7.16779e-05
8.81598e-06
7.6727e-05
1.2004e-05
7.85303e-05
1.58412e-05
8.08826e-05
1.34032e-05
1.14455e-05
8.55045e-05
-2.317e-05
-4.24888e-05
-4.22846e-05
-4.74655e-05
-2.66791e-05
-2.26394e-05
-1.07795e-05
-1.61965e-05
-1.42825e-05
-2.32035e-05
-1.45704e-05
-1.95988e-05
-1.52513e-05
-1.76272e-05
-1.76713e-05
-1.86502e-05
-1.98588e-05
-2.06474e-05
-1.98524e-05
-2.19383e-05
-1.92221e-05
-1.76542e-05
-2.44877e-05
-5.60038e-06
-3.75345e-05
5.93961e-07
-5.50303e-05
-1.34278e-05
-6.81351e-05
-4.27674e-05
-7.18984e-05
-3.96776e-05
-5.85893e-05
-2.03241e-05
-3.14516e-06
-4.64652e-05
3.73217e-05
-3.16508e-05
5.512e-05
-5.79429e-06
6.74403e-05
3.52088e-06
7.98311e-05
1.01243e-06
6.68199e-06
8.45945e-05
-1.81243e-05
-2.43645e-05
-2.09517e-05
-4.4638e-05
-1.45996e-05
-2.89914e-05
-1.00331e-05
-2.0763e-05
-1.30184e-05
-2.02181e-05
-1.42355e-05
-1.83816e-05
-1.5283e-05
-1.65795e-05
-1.71183e-05
-1.68149e-05
-1.84301e-05
-1.93355e-05
-1.82822e-05
-2.20861e-05
-1.60105e-05
-1.99258e-05
-1.25188e-05
-9.09204e-06
-1.45435e-05
2.61887e-06
-1.71905e-05
-1.07806e-05
-1.60823e-05
-4.38754e-05
-4.32869e-06
-5.1431e-05
1.84446e-05
-4.30973e-05
2.97916e-05
-5.78122e-05
3.54493e-05
-3.73085e-05
1.30957e-05
1.65593e-05
4.74305e-06
1.18735e-05
3.42174e-05
-2.84619e-05
-1.29851e-05
5.38845e-05
-7.64145e-06
-1.67231e-05
-1.18111e-05
-4.04684e-05
-1.26618e-05
-2.81407e-05
-1.1086e-05
-2.23387e-05
-1.14055e-05
-1.98984e-05
-1.19277e-05
-1.78593e-05
-1.2755e-05
-1.57521e-05
-1.41748e-05
-1.5395e-05
-1.59237e-05
-1.75865e-05
-1.73882e-05
-2.06216e-05
-1.72016e-05
-2.01122e-05
-1.37632e-05
-1.25304e-05
-5.4642e-06
-5.67994e-06
3.01022e-06
-1.92549e-05
4.13905e-06
-4.50041e-05
6.89644e-06
-5.41882e-05
1.97442e-05
-5.5945e-05
2.77229e-05
-6.57909e-05
4.8452e-05
-5.80376e-05
6.72104e-05
-2.1991e-06
4.42519e-05
3.4832e-05
-1.83965e-05
3.41864e-05
5.63061e-05
-8.76876e-05
-5.23642e-06
-1.14867e-05
-8.60901e-06
-3.70958e-05
-9.40482e-06
-2.73448e-05
-9.29982e-06
-2.24436e-05
-9.17568e-06
-2.00225e-05
-9.17037e-06
-1.78645e-05
-9.38799e-06
-1.55344e-05
-1.02957e-05
-1.44872e-05
-1.19627e-05
-1.59195e-05
-1.36481e-05
-1.89362e-05
-1.29551e-05
-2.08051e-05
-6.3353e-06
-1.91501e-05
5.71518e-06
-1.77303e-05
1.48008e-05
-2.83403e-05
1.25141e-05
-4.27172e-05
1.16103e-05
-5.32843e-05
1.56656e-05
-6.00003e-05
2.02026e-05
-7.03278e-05
3.5016e-05
-7.2851e-05
7.57435e-05
-4.29266e-05
0.000113297
-2.7212e-06
9.98052e-05
4.76779e-05
0.000106694
4.94174e-05
-3.48928e-06
-7.99738e-06
-6.0787e-06
-3.45063e-05
-6.89159e-06
-2.65319e-05
-7.17012e-06
-2.2165e-05
-7.04664e-06
-2.01459e-05
-6.66293e-06
-1.82482e-05
-6.08812e-06
-1.61092e-05
-5.81061e-06
-1.47647e-05
-6.23551e-06
-1.54946e-05
-6.98824e-06
-1.81834e-05
-6.30945e-06
-2.14838e-05
-1.41538e-06
-2.40441e-05
7.2779e-06
-2.64235e-05
1.29194e-05
-3.39817e-05
1.36305e-05
-4.34282e-05
1.33793e-05
-5.30331e-05
1.54849e-05
-6.21058e-05
1.82301e-05
-7.3073e-05
2.91824e-05
-8.38033e-05
5.59007e-05
-6.9645e-05
9.01136e-05
-3.69341e-05
0.000121879
1.59128e-05
8.32798e-05
0.000145293
-1.81708e-06
-6.18029e-06
-3.95923e-06
-3.23641e-05
-4.95828e-06
-2.55328e-05
-5.29205e-06
-2.18312e-05
-5.16193e-06
-2.0276e-05
-4.55316e-06
-1.8857e-05
-3.41095e-06
-1.72514e-05
-2.07774e-06
-1.60979e-05
-1.0942e-06
-1.64781e-05
-5.14334e-07
-1.87633e-05
3.30407e-07
-2.23286e-05
2.63486e-06
-2.63485e-05
6.63373e-06
-3.04223e-05
9.17891e-06
-3.65268e-05
9.29017e-06
-4.35394e-05
7.41339e-06
-5.11562e-05
5.56293e-06
-6.02553e-05
4.23565e-06
-7.17457e-05
6.49493e-06
-8.60626e-05
1.91896e-05
-8.23397e-05
4.15613e-05
-5.93058e-05
7.07826e-05
-1.33084e-05
5.29807e-05
0.000101082
-8.63534e-07
-5.31675e-06
-2.59615e-06
-3.06315e-05
-3.54351e-06
-2.45854e-05
-3.89866e-06
-2.1476e-05
-3.80523e-06
-2.03695e-05
-3.20494e-06
-1.94573e-05
-1.96748e-06
-1.84889e-05
-2.45975e-07
-1.78194e-05
1.46136e-06
-1.81855e-05
2.76908e-06
-2.0071e-05
3.69133e-06
-2.32508e-05
4.55012e-06
-2.72073e-05
5.56997e-06
-3.14421e-05
5.59018e-06
-3.6547e-05
3.87168e-06
-4.18209e-05
5.31428e-07
-4.7816e-05
-4.30282e-06
-5.54211e-05
-1.00708e-05
-6.59778e-05
-1.75234e-05
-7.861e-05
-1.97158e-05
-8.01474e-05
-1.59521e-05
-6.30694e-05
-3.12252e-07
-2.89482e-05
2.44161e-05
2.82525e-05
-3.48827e-07
-4.96792e-06
-1.75009e-06
-2.92303e-05
-2.59766e-06
-2.37379e-05
-2.95613e-06
-2.11176e-05
-2.94673e-06
-2.03789e-05
-2.52107e-06
-1.9883e-05
-1.562e-06
-1.9448e-05
-9.95726e-08
-1.92819e-05
1.49038e-06
-1.97755e-05
2.76761e-06
-2.13483e-05
3.45716e-06
-2.39404e-05
3.50309e-06
-2.72532e-05
2.95518e-06
-3.08942e-05
1.41415e-06
-3.50059e-05
-1.17722e-06
-3.92295e-05
-5.13029e-06
-4.38629e-05
-1.09593e-05
-4.95921e-05
-1.90896e-05
-5.78476e-05
-3.09465e-05
-6.67531e-05
-4.10417e-05
-7.00522e-05
-4.5361e-05
-5.87501e-05
-4.29471e-05
-3.1362e-05
5.45548e-06
-2.39863e-05
-9.43904e-08
-4.87354e-06
-1.24172e-06
-2.8083e-05
-2.00241e-06
-2.29773e-05
-2.37264e-06
-2.07475e-05
-2.46101e-06
-2.02906e-05
-2.26239e-06
-2.00817e-05
-1.71803e-06
-1.99924e-05
-8.34085e-07
-2.01659e-05
1.93314e-07
-2.08029e-05
9.61819e-07
-2.21168e-05
1.1827e-06
-2.41613e-05
7.09846e-07
-2.67804e-05
-4.82351e-07
-2.9702e-05
-2.50606e-06
-3.29823e-05
-5.25983e-06
-3.64758e-05
-9.02564e-06
-4.00972e-05
-1.45471e-05
-4.40707e-05
-2.3073e-05
-4.93218e-05
-3.48957e-05
-5.49305e-05
-4.76573e-05
-5.72906e-05
-5.59286e-05
-5.04788e-05
-5.48998e-05
-3.23908e-05
-7.20688e-06
-4.22373e-05
-1.11756e-08
-4.86239e-06
-9.67355e-07
-2.71269e-05
-1.6572e-06
-2.22875e-05
-2.05374e-06
-2.0351e-05
-2.24377e-06
-2.01007e-05
-2.25318e-06
-2.00724e-05
-2.08052e-06
-2.01652e-05
-1.74524e-06
-2.05012e-05
-1.36215e-06
-2.1186e-05
-1.16299e-06
-2.2316e-05
-1.39947e-06
-2.39248e-05
-2.22199e-06
-2.59579e-05
-3.63275e-06
-2.82913e-05
-5.73233e-06
-3.08828e-05
-8.55197e-06
-3.36563e-05
-1.21176e-05
-3.65317e-05
-1.67902e-05
-3.93982e-05
-2.40176e-05
-4.20945e-05
-3.48967e-05
-4.40514e-05
-4.81016e-05
-4.40857e-05
-5.89757e-05
-3.96046e-05
-6.31183e-05
-2.82482e-05
-1.25175e-05
-5.78077e-05
-1.73569e-08
-4.84507e-06
-8.44485e-07
-2.62999e-05
-1.491e-06
-2.16411e-05
-1.9202e-06
-1.99219e-05
-2.20666e-06
-1.98143e-05
-2.38376e-06
-1.98953e-05
-2.47486e-06
-2.00741e-05
-2.52245e-06
-2.04537e-05
-2.60385e-06
-2.11047e-05
-2.85367e-06
-2.20663e-05
-3.42475e-06
-2.33538e-05
-4.44241e-06
-2.49403e-05
-5.96855e-06
-2.67652e-05
-8.10572e-06
-2.87457e-05
-1.09669e-05
-3.07952e-05
-1.46849e-05
-3.28138e-05
-1.9411e-05
-3.46722e-05
-2.54722e-05
-3.60335e-05
-3.32245e-05
-3.62992e-05
-4.25624e-05
-3.47479e-05
-5.18145e-05
-3.03526e-05
-5.76729e-05
-2.23898e-05
-1.22805e-05
-5.79099e-05
-5.86925e-08
-4.78643e-06
-8.12725e-07
-2.55459e-05
-1.44069e-06
-2.10132e-05
-1.9059e-06
-1.94568e-05
-2.27893e-06
-1.94414e-05
-2.59056e-06
-1.95838e-05
-2.86761e-06
-1.97972e-05
-3.15604e-06
-2.01653e-05
-3.52262e-06
-2.07381e-05
-4.05173e-06
-2.15372e-05
-4.83882e-06
-2.25668e-05
-5.98251e-06
-2.37967e-05
-7.56158e-06
-2.51862e-05
-9.65349e-06
-2.66539e-05
-1.23393e-05
-2.81096e-05
-1.57284e-05
-2.94248e-05
-1.99538e-05
-3.04469e-05
-2.5065e-05
-3.09224e-05
-3.09096e-05
-3.04547e-05
-3.71292e-05
-2.85283e-05
-4.28513e-05
-2.46305e-05
-4.65147e-05
-1.87263e-05
-1.18606e-05
-4.69346e-05
-1.10363e-07
-4.67613e-06
-8.32334e-07
-2.48241e-05
-1.45996e-06
-2.03857e-05
-1.96227e-06
-1.89546e-05
-2.41138e-06
-1.89923e-05
-2.83383e-06
-1.91614e-05
-3.25144e-06
-1.93796e-05
-3.70417e-06
-1.97126e-05
-4.24751e-06
-2.01948e-05
-4.94556e-06
-2.08392e-05
-5.87134e-06
-2.1641e-05
-7.09521e-06
-2.25728e-05
-8.68391e-06
-2.35976e-05
-1.06975e-05
-2.46404e-05
-1.31851e-05
-2.56221e-05
-1.61871e-05
-2.6423e-05
-1.97417e-05
-2.68923e-05
-2.38528e-05
-2.68114e-05
-2.83887e-05
-2.59188e-05
-3.29624e-05
-2.39547e-05
-3.68418e-05
-2.07512e-05
-3.91522e-05
-1.6416e-05
-1.15605e-05
-3.94524e-05
-1.61879e-07
-4.51432e-06
-8.78153e-07
-2.41079e-05
-1.51723e-06
-1.97467e-05
-2.05492e-06
-1.8417e-05
-2.56771e-06
-1.84796e-05
-3.07978e-06
-1.86494e-05
-3.60814e-06
-1.88513e-05
-4.18339e-06
-1.91374e-05
-4.84802e-06
-1.95303e-05
-5.65583e-06
-2.00314e-05
-6.66175e-06
-2.06351e-05
-7.9187e-06
-2.13159e-05
-9.47892e-06
-2.20375e-05
-1.13796e-05
-2.27399e-05
-1.36542e-05
-2.33476e-05
-1.63139e-05
-2.37635e-05
-1.93445e-05
-2.38618e-05
-2.26704e-05
-2.34856e-05
-2.61297e-05
-2.24596e-05
-2.94426e-05
-2.06419e-05
-3.21805e-05
-1.80134e-05
-3.38483e-05
-1.47483e-05
-1.12369e-05
-3.4172e-05
-2.06514e-07
-4.30787e-06
-9.32922e-07
-2.33816e-05
-1.58813e-06
-1.90916e-05
-2.15878e-06
-1.78464e-05
-2.72287e-06
-1.79155e-05
-3.30321e-06
-1.80691e-05
-3.91379e-06
-1.82408e-05
-4.57836e-06
-1.84729e-05
-5.33115e-06
-1.87775e-05
-6.20736e-06
-1.91552e-05
-7.2538e-06
-1.95887e-05
-8.50404e-06
-2.00657e-05
-9.99821e-06
-2.05433e-05
-1.17597e-05
-2.09784e-05
-1.37967e-05
-2.13108e-05
-1.61025e-05
-2.14578e-05
-1.86408e-05
-2.13237e-05
-2.13315e-05
-2.0795e-05
-2.40314e-05
-1.97598e-05
-2.65208e-05
-1.81526e-05
-2.85171e-05
-1.60172e-05
-2.97416e-05
-1.35238e-05
-1.09472e-05
-3.00313e-05
-2.41504e-07
-4.06643e-06
-9.87329e-07
-2.26358e-05
-1.66043e-06
-1.84185e-05
-2.25763e-06
-1.72492e-05
-2.86098e-06
-1.73122e-05
-3.49071e-06
-1.74394e-05
-4.15801e-06
-1.75736e-05
-4.8817e-06
-1.77493e-05
-5.68666e-06
-1.79726e-05
-6.60289e-06
-1.8239e-05
-7.65496e-06
-1.85366e-05
-8.87671e-06
-1.88439e-05
-1.02883e-05
-1.91318e-05
-1.19007e-05
-1.93661e-05
-1.37182e-05
-1.94935e-05
-1.57194e-05
-1.94566e-05
-1.78606e-05
-1.91827e-05
-2.00632e-05
-1.85925e-05
-2.22056e-05
-1.76175e-05
-2.4125e-05
-1.62332e-05
-2.56333e-05
-1.45089e-05
-2.65554e-05
-1.26018e-05
-1.07197e-05
-2.67829e-05
-2.65632e-07
-3.80083e-06
-1.0346e-06
-2.18669e-05
-1.72219e-06
-1.7731e-05
-2.34045e-06
-1.6631e-05
-2.97205e-06
-1.66807e-05
-3.63528e-06
-1.67763e-05
-4.33933e-06
-1.68696e-05
-5.09894e-06
-1.69898e-05
-5.93066e-06
-1.71409e-05
-6.8569e-06
-1.73128e-05
-7.89846e-06
-1.7495e-05
-9.07465e-06
-1.76677e-05
-1.03986e-05
-1.78078e-05
-1.18765e-05
-1.78883e-05
-1.34976e-05
-1.78725e-05
-1.52417e-05
-1.77126e-05
-1.70635e-05
-1.73611e-05
-1.88943e-05
-1.67618e-05
-2.06351e-05
-1.58769e-05
-2.21644e-05
-1.4704e-05
-2.33503e-05
-1.3323e-05
-2.4073e-05
-1.1879e-05
-1.05469e-05
-2.42459e-05
-2.79735e-07
-3.52112e-06
-1.07117e-06
-2.10755e-05
-1.7699e-06
-1.70323e-05
-2.40125e-06
-1.59996e-05
-3.0504e-06
-1.60316e-05
-3.73335e-06
-1.60934e-05
-4.45655e-06
-1.61465e-05
-5.23113e-06
-1.62152e-05
-6.07217e-06
-1.62999e-05
-6.99341e-06
-1.63915e-05
-8.00984e-06
-1.64786e-05
-9.1329e-06
-1.65447e-05
-1.03702e-05
-1.65706e-05
-1.17218e-05
-1.65368e-05
-1.31781e-05
-1.64162e-05
-1.47142e-05
-1.61766e-05
-1.62897e-05
-1.57857e-05
-1.78446e-05
-1.52069e-05
-1.93021e-05
-1.44195e-05
-2.05704e-05
-1.34357e-05
-2.1553e-05
-1.23403e-05
-2.21595e-05
-1.12725e-05
-1.0391e-05
-2.23154e-05
-2.85917e-07
-3.23522e-06
-1.09523e-06
-2.02662e-05
-1.79724e-06
-1.63302e-05
-2.43502e-06
-1.53619e-05
-3.09262e-06
-1.5374e-05
-3.78403e-06
-1.54021e-05
-4.51383e-06
-1.54168e-05
-5.29107e-06
-1.5438e-05
-6.12633e-06
-1.54647e-05
-7.02981e-06
-1.54881e-05
-8.01137e-06
-1.5497e-05
-9.07914e-06
-1.54769e-05
-1.02358e-05
-1.5414e-05
-1.14791e-05
-1.52935e-05
-1.27979e-05
-1.50975e-05
-1.41694e-05
-1.48052e-05
-1.55572e-05
-1.4398e-05
-1.69143e-05
-1.38499e-05
-1.81792e-05
-1.31546e-05
-1.92823e-05
-1.23326e-05
-2.0152e-05
-1.14706e-05
-2.07156e-05
-1.07089e-05
-1.01986e-05
-2.09079e-05
-2.86435e-07
-2.94879e-06
-1.10172e-06
-1.94509e-05
-1.80016e-06
-1.56318e-05
-2.43712e-06
-1.47249e-05
-3.09477e-06
-1.47164e-05
-3.78485e-06
-1.4712e-05
-4.51073e-06
-1.46909e-05
-5.27952e-06
-1.46693e-05
-6.09926e-06
-1.4645e-05
-6.97784e-06
-1.46095e-05
-7.92198e-06
-1.45529e-05
-8.93289e-06
-1.4466e-05
-1.00159e-05
-1.4331e-05
-1.11667e-05
-1.41427e-05
-1.23741e-05
-1.38902e-05
-1.36184e-05
-1.3561e-05
-1.48715e-05
-1.3145e-05
-1.60898e-05
-1.26317e-05
-1.72313e-05
-1.20132e-05
-1.82445e-05
-1.13193e-05
-1.90749e-05
-1.06401e-05
-1.96644e-05
-1.01194e-05
-9.9121e-06
-1.99509e-05
-2.82123e-07
-2.66666e-06
-1.08748e-06
-1.86455e-05
-1.77192e-06
-1.49473e-05
-2.40215e-06
-1.40947e-05
-3.05276e-06
-1.40658e-05
-3.73358e-06
-1.40313e-05
-4.44723e-06
-1.39773e-05
-5.19981e-06
-1.39167e-05
-5.99731e-06
-1.38475e-05
-6.84501e-06
-1.37618e-05
-7.74771e-06
-1.36501e-05
-8.7098e-06
-1.35038e-05
-9.72611e-06
-1.33146e-05
-1.07982e-05
-1.30706e-05
-1.19169e-05
-1.27716e-05
-1.30635e-05
-1.24144e-05
-1.42176e-05
-1.1991e-05
-1.53507e-05
-1.14987e-05
-1.6426e-05
-1.09379e-05
-1.74038e-05
-1.03416e-05
-1.82502e-05
-9.79368e-06
-1.89198e-05
-9.44983e-06
-9.46477e-06
-1.93671e-05
-2.70603e-07
-2.39604e-06
-1.04647e-06
-1.78695e-05
-1.70911e-06
-1.42846e-05
-2.32585e-06
-1.34779e-05
-2.96251e-06
-1.34292e-05
-3.62751e-06
-1.33663e-05
-4.32349e-06
-1.32814e-05
-5.05364e-06
-1.31866e-05
-5.82383e-06
-1.30773e-05
-6.63888e-06
-1.29467e-05
-7.50163e-06
-1.27873e-05
-8.41319e-06
-1.25922e-05
-9.37422e-06
-1.23535e-05
-1.03807e-05
-1.20641e-05
-1.14267e-05
-1.17257e-05
-1.25028e-05
-1.13384e-05
-1.35914e-05
-1.09025e-05
-1.46717e-05
-1.04185e-05
-1.57181e-05
-9.89147e-06
-1.67094e-05
-9.35035e-06
-1.7622e-05
-8.88113e-06
-1.84282e-05
-8.64366e-06
-8.79393e-06
-1.9099e-05
-2.46003e-07
-2.14999e-06
-9.76723e-07
-1.71387e-05
-1.6093e-06
-1.36519e-05
-2.20691e-06
-1.28802e-05
-2.82228e-06
-1.28138e-05
-3.46399e-06
-1.27246e-05
-4.13428e-06
-1.26111e-05
-4.83801e-06
-1.24829e-05
-5.57888e-06
-1.23364e-05
-6.3593e-06
-1.21662e-05
-7.18284e-06
-1.19637e-05
-8.05017e-06
-1.17248e-05
-8.96157e-06
-1.14421e-05
-9.91353e-06
-1.11121e-05
-1.09048e-05
-1.07344e-05
-1.19262e-05
-1.03172e-05
-1.29712e-05
-9.85755e-06
-1.40262e-05
-9.36359e-06
-1.50772e-05
-8.84045e-06
-1.61145e-05
-8.31312e-06
-1.71265e-05
-7.86919e-06
-1.81062e-05
-7.664e-06
-7.85981e-06
-1.90403e-05
-2.02976e-07
-1.94695e-06
-8.79453e-07
-1.64621e-05
-1.47797e-06
-1.30533e-05
-2.04982e-06
-1.23084e-05
-2.6366e-06
-1.22271e-05
-3.24766e-06
-1.21136e-05
-3.8859e-06
-1.19729e-05
-4.55556e-06
-1.18132e-05
-5.26028e-06
-1.16316e-05
-6.00387e-06
-1.14225e-05
-6.78598e-06
-1.11815e-05
-7.60968e-06
-1.09009e-05
-8.47465e-06
-1.0577e-05
-9.37922e-06
-1.02075e-05
-1.03224e-05
-9.79128e-06
-1.13045e-05
-9.33509e-06
-1.23213e-05
-8.84081e-06
-1.33683e-05
-8.31656e-06
-1.44424e-05
-7.76642e-06
-1.55439e-05
-7.21171e-06
-1.6683e-05
-6.73006e-06
-1.78612e-05
-6.48588e-06
-6.62157e-06
-1.90994e-05
-1.3676e-07
-1.81014e-06
-7.62167e-07
-1.58367e-05
-1.32376e-06
-1.24917e-05
-1.86333e-06
-1.17688e-05
-2.41438e-06
-1.1676e-05
-2.98674e-06
-1.15412e-05
-3.58427e-06
-1.13753e-05
-4.211e-06
-1.11864e-05
-4.87112e-06
-1.09714e-05
-5.56818e-06
-1.07254e-05
-6.30289e-06
-1.04466e-05
-7.07766e-06
-1.01261e-05
-7.89309e-06
-9.76148e-06
-8.75005e-06
-9.35051e-06
-9.64906e-06
-8.89225e-06
-1.05935e-05
-8.39062e-06
-1.15832e-05
-7.85119e-06
-1.26246e-05
-7.27515e-06
-1.37228e-05
-6.66826e-06
-1.48896e-05
-6.0449e-06
-1.61472e-05
-5.47254e-06
-1.75293e-05
-5.10374e-06
-5.06535e-06
-1.90855e-05
-4.95843e-08
-1.76051e-06
-6.34384e-07
-1.52518e-05
-1.15906e-06
-1.1967e-05
-1.66092e-06
-1.1267e-05
-2.16892e-06
-1.1168e-05
-2.69566e-06
-1.10144e-05
-3.24305e-06
-1.08279e-05
-3.81678e-06
-1.06127e-05
-4.42126e-06
-1.03669e-05
-5.05845e-06
-1.00881e-05
-5.73358e-06
-9.77139e-06
-6.44735e-06
-9.41216e-06
-7.202e-06
-9.00673e-06
-7.99986e-06
-8.55258e-06
-8.84197e-06
-8.0501e-06
-9.73442e-06
-7.49815e-06
-1.0685e-05
-6.90064e-06
-1.17025e-05
-6.25762e-06
-1.28017e-05
-5.56911e-06
-1.40032e-05
-4.84332e-06
-1.53412e-05
-4.13459e-06
-1.68711e-05
-3.5738e-06
-3.26305e-06
-1.86734e-05
5.61038e-08
-1.81659e-06
-5.06987e-07
-1.46887e-05
-9.96282e-07
-1.14778e-05
-1.45559e-06
-1.08077e-05
-1.9158e-06
-1.07078e-05
-2.39084e-06
-1.05394e-05
-2.88266e-06
-1.03361e-05
-3.39545e-06
-1.00998e-05
-3.9334e-06
-9.82887e-06
-4.50087e-06
-9.52054e-06
-5.10118e-06
-9.17098e-06
-5.73709e-06
-8.77613e-06
-6.41165e-06
-8.33209e-06
-7.1279e-06
-7.83627e-06
-7.89064e-06
-7.28732e-06
-8.70451e-06
-6.68426e-06
-9.58065e-06
-6.02449e-06
-1.05329e-05
-5.3054e-06
-1.15798e-05
-4.52211e-06
-1.27462e-05
-3.67687e-06
-1.40775e-05
-2.80327e-06
-1.56451e-05
-2.00617e-06
-1.35151e-06
-1.75566e-05
1.7524e-07
-1.99181e-06
-3.88861e-07
-1.41245e-05
-8.4663e-07
-1.102e-05
-1.26318e-06
-1.03911e-05
-1.67589e-06
-1.0295e-05
-2.10001e-06
-1.01152e-05
-2.53493e-06
-9.90108e-06
-2.98472e-06
-9.64999e-06
-3.45298e-06
-9.36055e-06
-3.94333e-06
-9.03013e-06
-4.4591e-06
-8.65514e-06
-5.00367e-06
-8.23148e-06
-5.5805e-06
-7.7552e-06
-6.19333e-06
-7.22339e-06
-6.84684e-06
-6.63375e-06
-7.54727e-06
-5.98379e-06
-8.30446e-06
-5.26727e-06
-9.13273e-06
-4.47707e-06
-1.0051e-05
-3.60373e-06
-1.10852e-05
-2.64269e-06
-1.22796e-05
-1.60879e-06
-1.37186e-05
-5.67106e-07
4.3774e-07
-1.55078e-05
3.03262e-07
-2.29504e-06
-2.87336e-07
-1.35339e-05
-7.22908e-07
-1.05844e-05
-1.09948e-06
-1.00145e-05
-1.4711e-06
-9.92335e-06
-1.85065e-06
-9.73562e-06
-2.23542e-06
-9.51626e-06
-2.62842e-06
-9.25695e-06
-3.03205e-06
-8.95689e-06
-3.44891e-06
-8.61323e-06
-3.88174e-06
-8.22227e-06
-4.33345e-06
-7.77972e-06
-4.80708e-06
-7.28152e-06
-5.3057e-06
-6.7247e-06
-5.83245e-06
-6.10693e-06
-6.39274e-06
-5.42343e-06
-6.99331e-06
-4.66666e-06
-7.64447e-06
-3.82584e-06
-8.3599e-06
-2.88822e-06
-9.15838e-06
-1.84416e-06
-1.00752e-05
-6.91936e-07
-1.1162e-05
5.198e-07
1.8296e-06
-1.25538e-05
4.3149e-07
-2.72648e-06
-2.08282e-07
-1.2894e-05
-6.31325e-07
-1.01613e-05
-9.74317e-07
-9.67145e-06
-1.31709e-06
-9.58054e-06
-1.66315e-06
-9.38951e-06
-2.00966e-06
-9.1697e-06
-2.35861e-06
-8.90795e-06
-2.7112e-06
-8.60427e-06
-3.06866e-06
-8.25575e-06
-3.43267e-06
-7.85822e-06
-3.80507e-06
-7.4073e-06
-4.18749e-06
-6.89906e-06
-4.58095e-06
-6.33119e-06
-4.98657e-06
-5.70126e-06
-5.40536e-06
-5.00464e-06
-5.83934e-06
-4.23266e-06
-6.29129e-06
-3.37385e-06
-6.76433e-06
-2.41513e-06
-7.26447e-06
-1.34396e-06
-7.80527e-06
-1.51084e-07
-8.4346e-06
1.14919e-06
2.60897e-06
-9.21395e-06
5.49282e-07
-3.27569e-06
-1.52405e-07
-1.21922e-05
-5.69237e-07
-9.74437e-06
-8.88121e-07
-9.3525e-06
-1.21319e-06
-9.25542e-06
-1.53647e-06
-9.06616e-06
-1.85761e-06
-8.84853e-06
-2.17669e-06
-8.58885e-06
-2.49417e-06
-8.28678e-06
-2.81088e-06
-7.93903e-06
-3.12723e-06
-7.54188e-06
-3.44378e-06
-7.09076e-06
-3.76048e-06
-6.58237e-06
-4.07584e-06
-6.01584e-06
-4.38733e-06
-5.38978e-06
-4.69173e-06
-4.70026e-06
-4.98508e-06
-3.93931e-06
-5.26111e-06
-3.09779e-06
-5.50985e-06
-2.16636e-06
-5.7199e-06
-1.13391e-06
-5.88147e-06
1.05014e-08
-6.00771e-06
1.27544e-06
2.70326e-06
-6.102e-06
6.50719e-07
-3.92636e-06
-1.12922e-07
-1.14285e-05
-5.24976e-07
-9.33225e-06
-8.2503e-07
-9.05238e-06
-1.13939e-06
-8.94101e-06
-1.44498e-06
-8.76052e-06
-1.74743e-06
-8.54606e-06
-2.04627e-06
-8.28998e-06
-2.34147e-06
-7.99158e-06
-2.63284e-06
-7.64766e-06
-2.92046e-06
-7.25428e-06
-3.20412e-06
-6.80715e-06
-3.48206e-06
-6.30446e-06
-3.74995e-06
-5.74795e-06
-4.00274e-06
-5.13698e-06
-4.2339e-06
-4.46911e-06
-4.43481e-06