/*--------------------------------*- C++ -*----------------------------------*\
| =========                 |                                                 |
| \\      /  F ield         | OpenFOAM: The Open Source CFD Toolbox           |
|  \\    /   O peration     | Version:  2206                                  |
|   \\  /    A nd           | Website:  www.openfoam.com                      |
|    \\/     M anipulation  |                                                 |
\*---------------------------------------------------------------------------*/
FoamFile
{
    version     2.0;
    format      ascii;
    arch        "LSB;label=32;scalar=64";
    class       volVectorField;
    location    "0.475";
    object      U;
}
// * * * * * * * * * * * * * * * * * * * * * * * * * * * * * * * * * * * * * //

dimensions      [0 1 -1 0 0 0 0];

internalField   nonuniform List<vector> 
2268
(
(-0.0340538 0.0106014 0)
(-0.0607914 0.00344618 0)
(-0.0474001 -0.00725482 0)
(0.00024548 -0.0133625 0)
(0.0648712 -0.0160739 0)
(0.132314 -0.0154553 0)
(0.193317 -0.0127397 0)
(0.241272 -0.00934535 0)
(0.27463 -0.00619461 0)
(0.295381 -0.00362789 0)
(0.306498 -0.00163311 0)
(0.310433 7.4448e-05 0)
(0.307833 0.00194803 0)
(0.297913 0.00451696 0)
(0.278583 0.00836223 0)
(0.245925 0.0140452 0)
(0.193063 0.0215209 0)
(0.115876 0.0277284 0)
(0.00823324 0.0188064 0)
(-0.0442297 0.0107188 0)
(-0.166628 0.0278155 0)
(-0.242112 0.003359 0)
(-0.0843101 -0.0576455 0)
(-0.0426334 0.0318329 0)
(-0.0576215 0.00718285 0)
(-0.0431891 -0.022448 0)
(0.00546072 -0.0405217 0)
(0.0698511 -0.0484286 0)
(0.136609 -0.046503 0)
(0.196554 -0.0383686 0)
(0.243377 -0.0282596 0)
(0.275917 -0.0189328 0)
(0.296412 -0.0113816 0)
(0.307909 -0.0055571 0)
(0.312823 -0.000889245 0)
(0.313469 0.00332815 0)
(0.311725 0.00809625 0)
(0.308553 0.0146015 0)
(0.30368 0.024512 0)
(0.292405 0.0392997 0)
(0.263857 0.0588263 0)
(0.181941 0.0667495 0)
(0.0776504 0.0668525 0)
(-0.1195 0.0603737 0)
(-0.152811 -0.0129106 0)
(-0.0252738 -0.130775 0)
(-0.0383897 0.0524912 0)
(-0.049914 0.00901326 0)
(-0.0342647 -0.0380491 0)
(0.0135582 -0.0672249 0)
(0.0760514 -0.0800128 0)
(0.140887 -0.076632 0)
(0.198509 -0.0629529 0)
(0.242766 -0.0461678 0)
(0.273164 -0.0308923 0)
(0.29244 -0.018688 0)
(0.303714 -0.00939258 0)
(0.309185 -0.00225789 0)
(0.310135 0.00356981 0)
(0.307244 0.00916896 0)
(0.301011 0.0159472 0)
(0.292749 0.0261058 0)
(0.285164 0.0427283 0)
(0.28374 0.0702724 0)
(0.266804 0.10035 0)
(0.214652 0.126407 0)
(0.0766341 0.11882 0)
(-0.0258343 -0.011404 0)
(0.0374674 -0.153338 0)
(-0.0322107 0.0700443 0)
(-0.0385799 0.00977641 0)
(-0.0214277 -0.0536366 0)
(0.0230219 -0.0923689 0)
(0.0819009 -0.110208 0)
(0.144313 -0.105549 0)
(0.199436 -0.0861981 0)
(0.24078 -0.0627889 0)
(0.268673 -0.0419874 0)
(0.286617 -0.0257167 0)
(0.297868 -0.0134699 0)
(0.30438 -0.00408398 0)
(0.307086 0.00375921 0)
(0.306322 0.0113045 0)
(0.302064 0.0199059 0)
(0.294369 0.0310467 0)
(0.284152 0.0466572 0)
(0.277611 0.0714696 0)
(0.281765 0.10804 0)
(0.287192 0.153368 0)
(0.238764 0.165811 0)
(0.154302 0.0297945 0)
(0.106277 -0.111514 0)
(-0.0252807 0.0828495 0)
(-0.0222494 0.00806449 0)
(-0.00460077 -0.0674871 0)
(0.0348679 -0.115128 0)
(0.0884984 -0.13865 0)
(0.147245 -0.133221 0)
(0.199127 -0.108115 0)
(0.237221 -0.0780091 0)
(0.262608 -0.052009 0)
(0.279496 -0.032293 0)
(0.291155 -0.0177371 0)
(0.299154 -0.00659265 0)
(0.304018 0.00278267 0)
(0.305809 0.0119488 0)
(0.304403 0.0222451 0)
(0.299776 0.0348992 0)
(0.292409 0.051089 0)
(0.283864 0.0728379 0)
(0.282019 0.103403 0)
(0.302322 0.1496 0)
(0.315559 0.17824 0)
(0.257641 0.0861056 0)
(0.158145 -0.0422105 0)
(-0.0169116 0.0899016 0)
(0.000659053 0.00385335 0)
(0.01977 -0.0804537 0)
(0.0573586 -0.136569 0)
(0.104955 -0.16532 0)
(0.155733 -0.159112 0)
(0.200568 -0.128473 0)
(0.233379 -0.0922653 0)
(0.255634 -0.0617526 0)
(0.271703 -0.0391213 0)
(0.284377 -0.0225997 0)
(0.294488 -0.00991813 0)
(0.301998 0.000810873 0)
(0.306561 0.0113048 0)
(0.307819 0.0230386 0)
(0.305834 0.0370531 0)
(0.301492 0.0542303 0)
(0.296039 0.0754766 0)
(0.290705 0.100356 0)
(0.298813 0.136198 0)
(0.329157 0.172031 0)
(0.297203 0.131568 0)
(0.186509 0.060613 0)
(-0.00570076 0.0887213 0)
(0.0300322 -0.0088249 0)
(0.0595664 -0.0958465 0)
(0.103362 -0.156199 0)
(0.143523 -0.187573 0)
(0.178211 -0.179781 0)
(0.20916 -0.144211 0)
(0.233171 -0.103561 0)
(0.250769 -0.0706271 0)
(0.265351 -0.0467751 0)
(0.27876 -0.0292224 0)
(0.290919 -0.0152011 0)
(0.30117 -0.00269517 0)
(0.308796 0.00953812 0)
(0.312937 0.0227882 0)
(0.313367 0.0378047 0)
(0.311068 0.0554904 0)
(0.307873 0.0770546 0)
(0.304632 0.100939 0)
(0.302376 0.128761 0)
(0.322064 0.166204 0)
(0.308552 0.169262 0)
(0.217562 0.165828 0)
(0.00741285 0.0782205 0)
(0.062747 -0.0245797 0)
(0.121778 -0.112101 0)
(0.177927 -0.172011 0)
(0.204154 -0.201512 0)
(0.213153 -0.191343 0)
(0.224968 -0.152586 0)
(0.239212 -0.108969 0)
(0.252609 -0.0748177 0)
(0.265832 -0.0512393 0)
(0.279226 -0.0343946 0)
(0.292004 -0.0208503 0)
(0.303202 -0.00820413 0)
(0.31227 0.00629361 0)
(0.318529 0.0225301 0)
(0.321407 0.0398062 0)
(0.321578 0.0580633 0)
(0.320078 0.0785948 0)
(0.319177 0.101499 0)
(0.316477 0.125689 0)
(0.321226 0.163415 0)
(0.319715 0.204074 0)
(0.21491 0.30911 0)
(-0.00260691 -0.00709047 0)
(-0.0149908 0.000216815 0)
(-0.0660349 0.0146705 0)
(-0.156578 0.0269072 0)
(-0.278774 0.0351106 0)
(-0.426578 0.0417365 0)
(-0.601458 0.0454097 0)
(-0.7464 0.0157903 0)
(-0.735133 -0.129373 0)
(-0.625568 -0.260155 0)
(-0.939602 0.124425 0)
(-2.6734 0.55495 0)
(-4.95328 0.485897 0)
(-6.3489 0.147425 0)
(-5.88519 -0.185663 0)
(-5.09569 -0.265937 0)
(-4.3078 -0.414852 0)
(-2.47217 -0.819526 0)
(-0.650297 -0.696875 0)
(-0.0327677 0.0155239 0)
(-0.0897639 0.0327158 0)
(-0.158061 0.0581263 0)
(-0.251841 0.0845437 0)
(-0.37792 0.10757 0)
(-0.535485 0.132322 0)
(-0.750208 0.157065 0)
(-1.02834 0.124671 0)
(-1.38641 0.00812148 0)
(-2.27663 0.330367 0)
(-3.88962 1.1935 0)
(-5.87563 1.53524 0)
(-6.8911 0.976955 0)
(-5.49734 -0.0610041 0)
(-3.73459 -0.686771 0)
(-3.05163 -0.71188 0)
(-2.658 -0.904956 0)
(-1.21152 -1.62216 0)
(-0.109266 -1.24751 0)
(-0.0384408 0.0540165 0)
(-0.101527 0.0677616 0)
(-0.176346 0.0997563 0)
(-0.265094 0.138392 0)
(-0.375469 0.176379 0)
(-0.512199 0.224295 0)
(-0.717871 0.300231 0)
(-1.07707 0.389602 0)
(-1.74869 0.54008 0)
(-3.26972 1.16247 0)
(-5.32415 1.90326 0)
(-6.18744 1.74538 0)
(-5.32778 0.479238 0)
(-3.23417 -1.17713 0)
(-3.43852 -0.964571 0)
(-3.21944 -0.583465 0)
(-2.3326 -1.19352 0)
(-0.869089 -2.2494 0)
(0.0561649 -1.53676 0)
(-0.0313322 0.0834288 0)
(-0.0787958 0.101793 0)
(-0.145849 0.139513 0)
(-0.232469 0.187912 0)
(-0.337435 0.237841 0)
(-0.455001 0.305417 0)
(-0.625242 0.438625 0)
(-0.948216 0.679749 0)
(-1.49127 1.12043 0)
(-2.76034 1.92215 0)
(-4.61059 2.39748 0)
(-4.88588 1.69909 0)
(-3.55319 -0.246954 0)
(-3.088 -1.27312 0)
(-3.56797 -1.10278 0)
(-2.99632 -0.997108 0)
(-2.02963 -1.66146 0)
(-0.6923 -2.75884 0)
(0.175239 -1.75684 0)
(-0.0212366 0.114273 0)
(-0.0489249 0.131338 0)
(-0.104678 0.175895 0)
(-0.189838 0.236559 0)
(-0.294292 0.295359 0)
(-0.387588 0.370084 0)
(-0.494003 0.541475 0)
(-0.704271 0.888898 0)
(-0.962565 1.52789 0)
(-1.44168 2.49105 0)
(-2.60997 2.78303 0)
(-2.70667 1.57867 0)
(-1.50503 -0.317267 0)
(-1.44515 -1.12642 0)
(-1.88279 -1.3092 0)
(-1.585 -1.37114 0)
(-0.993978 -1.84865 0)
(-0.527292 -3.12947 0)
(0.25965 -1.96201 0)
(-0.0143816 0.0971409 0)
(-0.0291758 0.157137 0)
(-0.0665922 0.206573 0)
(-0.148963 0.28406 0)
(-0.256579 0.347451 0)
(-0.320495 0.408696 0)
(-0.342117 0.590094 0)
(-0.426147 0.99004 0)
(-0.452544 1.64541 0)
(-0.21441 2.60969 0)
(-0.280687 2.92305 0)
(-0.197685 1.42007 0)
(0.104819 -0.418144 0)
(-0.0224369 -1.07542 0)
(-0.377901 -1.2244 0)
(-0.319325 -1.65 0)
(0.33671 -1.54789 0)
(-0.334433 -3.20652 0)
(0.308457 -2.1099 0)
(-0.0133851 0.151587 0)
(0.00289961 0.164124 0)
(-0.0291279 0.238914 0)
(-0.108558 0.336184 0)
(-0.22951 0.403388 0)
(-0.26422 0.426784 0)
(-0.182535 0.589045 0)
(-0.164395 1.01071 0)
(-0.070064 1.54678 0)
(0.470425 2.31817 0)
(1.21385 2.62888 0)
(1.5528 1.46092 0)
(1.59428 -0.0456619 0)
(1.12354 -0.953907 0)
(0.742648 -1.14866 0)
(0.475187 -1.69791 0)
(1.10837 -2.07018 0)
(-0.140845 -2.87131 0)
(0.324786 -2.16655 0)
(0.261148 0.0913023 0)
(0.110508 0.262166 0)
(-0.0177635 0.233165 0)
(-0.0738758 0.369221 0)
(-0.217145 0.437513 0)
(-0.225792 0.378593 0)
(-0.0209798 0.500617 0)
(0.0553363 0.976751 0)
(0.199853 1.36957 0)
(0.750463 1.86773 0)
(1.72078 2.08339 0)
(2.37174 1.30056 0)
(2.44075 0.154565 0)
(1.97023 -0.671472 0)
(1.46452 -1.07329 0)
(1.04246 -1.59102 0)
(1.1702 -2.03715 0)
(0.0681308 -2.18601 0)
(0.317876 -2.13195 0)
(0.0269819 0.0361038 0)
(0.128304 -0.0708903 0)
(0.239963 -0.15781 0)
(0.301722 -0.198574 0)
(0.285213 -0.205887 0)
(0.248928 -0.191371 0)
(0.236 -0.158201 0)
(0.242835 -0.118406 0)
(0.257749 -0.084271 0)
(0.27596 -0.0589491 0)
(0.294214 -0.0398994 0)
(0.309907 -0.0245843 0)
(0.322128 -0.0121786 0)
(0.329709 -0.00185485 0)
(0.333169 0.010659 0)
(0.334368 0.0278396 0)
(0.335149 0.0504893 0)
(0.335989 0.0766509 0)
(0.33753 0.103225 0)
(0.343977 0.128057 0)
(0.350879 0.161762 0)
(0.402307 0.199045 0)
(0.43708 0.362502 0)
(0.048234 -0.0700929 0)
(0.222657 -0.215439 0)
(0.366379 -0.26864 0)
(0.373239 -0.225915 0)
(0.294409 -0.181043 0)
(0.220745 -0.167494 0)
(0.193392 -0.16028 0)
(0.198964 -0.144432 0)
(0.224107 -0.123369 0)
(0.258912 -0.101822 0)
(0.29525 -0.0797953 0)
(0.32692 -0.0555298 0)
(0.349536 -0.0277941 0)
(0.361134 0.00174821 0)
(0.363922 0.0302694 0)
(0.36383 0.0512024 0)
(0.362933 0.0653508 0)
(0.361222 0.0795723 0)
(0.361079 0.091727 0)
(0.371119 0.106696 0)
(0.388894 0.130984 0)
(0.428617 0.141879 0)
(0.501022 0.218455 0)
(0.0834389 -0.21478 0)
(0.24805 -0.432039 0)
(0.291935 -0.287741 0)
(-0.0726408 -0.0247139 0)
(-0.0180407 -0.0569978 0)
(-0.00878024 -0.0899395 0)
(-0.0258966 -0.119385 0)
(-0.0318986 -0.138866 0)
(-0.000798407 -0.141647 0)
(0.0498485 -0.131112 0)
(0.110379 -0.111241 0)
(0.172775 -0.0853896 0)
(0.23524 -0.0574263 0)
(0.293297 -0.0293731 0)
(0.347693 -0.00378813 0)
(0.388843 0.0153568 0)
(0.400231 0.0433427 0)
(0.383842 0.0823726 0)
(0.363854 0.100103 0)
(0.365218 0.102233 0)
(0.385622 0.107307 0)
(0.411044 0.0977162 0)
(0.459944 0.106942 0)
(0.0427396 -0.456248 0)
(-0.0332927 -0.494671 0)
(-0.110789 0.108844 0)
(-0.0834324 0.0766756 0)
(-0.0701615 -0.239807 0)
(-0.105967 -0.129482 0)
(-0.135439 -0.107818 0)
(-0.163643 -0.135399 0)
(-0.205275 -0.161003 0)
(-0.249964 -0.161953 0)
(-0.295167 -0.143958 0)
(-0.37015 -0.120157 0)
(-0.458535 -0.102472 0)
(-0.443335 -0.104841 0)
(-0.223822 -0.0779874 0)
(0.119969 0.00450156 0)
(0.260859 0.0641462 0)
(0.317209 0.105258 0)
(0.364767 0.101396 0)
(0.40387 0.0917739 0)
(0.420238 0.09308 0)
(0.426904 0.0726884 0)
(0.441001 0.0555126 0)
(-0.0844717 -0.279126 0)
(-0.198224 -0.21699 0)
(-0.199244 -0.0899542 0)
(-0.0959383 -0.0634125 0)
(-0.0505441 -0.123923 0)
(-0.0782693 -0.104061 0)
(-0.0786633 -0.0908706 0)
(-0.088511 -0.101836 0)
(-0.104396 -0.110557 0)
(-0.109223 -0.109088 0)
(-0.103611 -0.0784298 0)
(-0.102653 -0.0305556 0)
(-0.149901 -0.0510384 0)
(-0.251189 -0.202831 0)
(-0.329497 -0.423535 0)
(-0.431351 -0.355878 0)
(-0.416013 -0.104875 0)
(-0.161697 0.00509205 0)
(0.137301 0.0107904 0)
(0.27124 0.0463551 0)
(0.334586 0.0820878 0)
(0.40369 0.0842663 0)
(0.449415 0.0806536 0)
(-0.0968454 -0.169907 0)
(-0.106237 -0.288446 0)
(-0.104813 -0.179418 0)
(-0.0579922 -0.113248 0)
(-0.0606497 -0.117784 0)
(-0.0715391 -0.102324 0)
(-0.0786117 -0.0930691 0)
(-0.0876751 -0.0950746 0)
(-0.0971529 -0.108727 0)
(-0.0997159 -0.121854 0)
(-0.0936808 -0.103617 0)
(-0.0693572 -0.0312112 0)
(-0.0642507 0.0539886 0)
(-0.105031 0.0243198 0)
(-0.0916882 -0.127231 0)
(-0.0753213 -0.192016 0)
(0.0392306 -0.170573 0)
(0.135271 -0.429866 0)
(0.20866 -0.299 0)
(0.151541 -0.0780486 0)
(-0.0623922 -0.0415698 0)
(0.139145 -0.0650341 0)
(0.246583 0.00390958 0)
(-0.0452527 -0.108856 0)
(-0.0433579 -0.222445 0)
(-0.0750367 -0.146449 0)
(-0.0625845 -0.11746 0)
(-0.0604156 -0.108363 0)
(-0.0610101 -0.097541 0)
(-0.0658384 -0.0870947 0)
(-0.0721235 -0.087866 0)
(-0.080702 -0.101939 0)
(-0.0896533 -0.118028 0)
(-0.0957183 -0.109116 0)
(-0.0858633 -0.0564905 0)
(-0.0568436 -0.0163286 0)
(-0.00525666 -0.109111 0)
(0.0324285 -0.287323 0)
(0.0146328 -0.319685 0)
(0.0704067 -0.304078 0)
(0.12183 -0.287125 0)
(0.190294 -0.184478 0)
(0.339696 0.188528 0)
(0.319265 0.215218 0)
(0.22522 -0.14397 0)
(-0.542744 -0.0901048 0)
(-0.0227927 -0.0717151 0)
(-0.0351087 -0.20678 0)
(-0.0535536 -0.149369 0)
(-0.0506559 -0.122072 0)
(-0.0498798 -0.108234 0)
(-0.0486538 -0.0959672 0)
(-0.0492234 -0.0833367 0)
(-0.0520606 -0.0794712 0)
(-0.0590325 -0.0897101 0)
(-0.0689033 -0.10669 0)
(-0.0755193 -0.110607 0)
(-0.0591577 -0.0851206 0)
(-0.00720569 -0.056715 0)
(0.0658025 -0.122055 0)
(0.0812324 -0.222706 0)
(0.0613424 -0.284644 0)
(0.0701153 -0.311841 0)
(0.0909059 -0.390271 0)
(0.126441 -0.391259 0)
(0.279185 -0.197278 0)
(0.508377 0.0882691 0)
(0.66338 0.382318 0)
(0.497942 0.588993 0)
(-0.0105484 -0.0503118 0)
(-0.0255965 -0.193719 0)
(-0.0380061 -0.146366 0)
(-0.0380812 -0.120537 0)
(-0.0387685 -0.108691 0)
(-0.0369477 -0.0973426 0)
(-0.0341385 -0.084692 0)
(-0.0313274 -0.0776654 0)
(-0.0315137 -0.0833688 0)
(-0.0352923 -0.0993665 0)
(-0.0380098 -0.11566 0)
(-0.0273529 -0.122478 0)
(0.0139767 -0.128504 0)
(0.0598839 -0.174638 0)
(0.0752858 -0.232975 0)
(0.0746362 -0.286646 0)
(0.0768029 -0.332388 0)
(0.0923582 -0.385057 0)
(0.108575 -0.425854 0)
(0.204242 -0.314223 0)
(0.374624 -0.124542 0)
(0.560596 0.180867 0)
(0.816389 0.56265 0)
(-0.00304614 -0.0360288 0)
(-0.0152143 -0.179866 0)
(-0.0265208 -0.140553 0)
(-0.0280318 -0.11895 0)
(-0.0287236 -0.10928 0)
(-0.0266531 -0.100179 0)
(-0.0218335 -0.0897171 0)
(-0.0146036 -0.0823008 0)
(-0.00781377 -0.0846079 0)
(-0.00392588 -0.0979094 0)
(-0.00107376 -0.117678 0)
(0.00483603 -0.138402 0)
(0.024459 -0.158398 0)
(0.0448253 -0.193806 0)
(0.0543272 -0.238322 0)
(0.0485919 -0.284126 0)
(0.0345043 -0.333821 0)
(0.0326128 -0.395578 0)
(0.0145858 -0.467572 0)
(0.0518554 -0.425088 0)
(0.138315 -0.286922 0)
(0.261706 -0.0247767 0)
(0.545465 0.359853 0)
(0.000604086 -0.0297285 0)
(-0.00906272 -0.169447 0)
(-0.0184742 -0.135039 0)
(-0.0204187 -0.116923 0)
(-0.0213052 -0.109869 0)
(-0.0194692 -0.10366 0)
(-0.0146014 -0.0967049 0)
(-0.00625783 -0.0914624 0)
(0.00370903 -0.0928595 0)
(0.0120935 -0.103724 0)
(0.0182178 -0.122099 0)
(0.0222436 -0.144715 0)
(0.0276665 -0.16866 0)
(0.0322361 -0.199654 0)
(0.0290274 -0.231703 0)
(0.0141831 -0.267504 0)
(-0.00783873 -0.3134 0)
(-0.031937 -0.375964 0)
(-0.0794537 -0.446528 0)
(-0.112723 -0.437623 0)
(-0.111226 -0.326934 0)
(-0.0964887 -0.125893 0)
(0.0974882 0.208645 0)
(0.00216037 -0.0273196 0)
(-0.00546487 -0.161163 0)
(-0.0131829 -0.13026 0)
(-0.0152303 -0.114942 0)
(-0.0163534 -0.110092 0)
(-0.0151946 -0.106474 0)
(-0.0116169 -0.102911 0)
(-0.00494514 -0.100741 0)
(0.00393367 -0.102824 0)
(0.0123116 -0.111828 0)
(0.0179772 -0.127236 0)
(0.0198016 -0.146924 0)
(0.0187549 -0.168538 0)
(0.0134674 -0.193327 0)
(0.00237314 -0.218443 0)
(-0.0140069 -0.246462 0)
(-0.0375656 -0.282072 0)
(-0.0744096 -0.333651 0)
(-0.133598 -0.392499 0)
(-0.204671 -0.405619 0)
(-0.252831 -0.320864 0)
(-0.257122 -0.147401 0)
(-0.186591 0.0844078 0)
(0.00257636 -0.0265017 0)
(-0.00339712 -0.154329 0)
(-0.00985452 -0.125894 0)
(-0.0119826 -0.112971 0)
(-0.0133222 -0.109856 0)
(-0.0130062 -0.108113 0)
(-0.0110976 -0.106938 0)
(-0.00716638 -0.107194 0)
(-0.00164305 -0.110297 0)
(0.00377604 -0.117906 0)
(0.00690158 -0.130164 0)
(0.00618897 -0.14591 0)
(0.0018484 -0.163381 0)
(-0.00666128 -0.183045 0)
(-0.0193588 -0.203838 0)
(-0.0358445 -0.22549 0)
(-0.058054 -0.25078 0)
(-0.0948916 -0.286899 0)
(-0.153403 -0.327994 0)
(-0.229632 -0.347554 0)
(-0.296718 -0.304285 0)
(-0.312872 -0.184181 0)
(-0.260687 -0.0169965 0)
(0.00234662 -0.0264099 0)
(-0.00240887 -0.14874 0)
(-0.00790438 -0.122031 0)
(-0.0101226 -0.11089 0)
(-0.0117551 -0.109071 0)
(-0.0122485 -0.108532 0)
(-0.0118043 -0.10869 0)
(-0.0103537 -0.110252 0)
(-0.00816389 -0.113939 0)
(-0.0062084 -0.120459 0)
(-0.00598636 -0.130076 0)
(-0.00868857 -0.142341 0)
(-0.0145997 -0.156296 0)
(-0.0238585 -0.171988 0)
(-0.0370057 -0.188793 0)
(-0.0539734 -0.206225 0)
(-0.0748672 -0.224055 0)
(-0.105116 -0.24384 0)
(-0.154374 -0.263737 0)
(-0.225107 -0.271956 0)
(-0.299663 -0.245565 0)
(-0.343237 -0.171293 0)
(-0.32769 -0.0654302 0)
(0.0019209 -0.0263571 0)
(-0.0020542 -0.144001 0)
(-0.00691693 -0.118453 0)
(-0.00926459 -0.10866 0)
(-0.0112031 -0.107756 0)
(-0.0124012 -0.107957 0)
(-0.0130707 -0.108758 0)
(-0.0133506 -0.110773 0)
(-0.013539 -0.114436 0)
(-0.0141908 -0.120038 0)
(-0.0161705 -0.127697 0)
(-0.0202777 -0.137265 0)
(-0.0270283 -0.148315 0)
(-0.0367527 -0.160464 0)
(-0.0499888 -0.173313 0)
(-0.0674716 -0.186496 0)
(-0.0900941 -0.19909 0)
(-0.119095 -0.208706 0)
(-0.156434 -0.212043 0)
(-0.204071 -0.206372 0)
(-0.257636 -0.184818 0)
(-0.300945 -0.137624 0)
(-0.315024 -0.069543 0)
(0.00147977 -0.0261386 0)
(-0.00206545 -0.139791 0)
(-0.00655004 -0.115039 0)
(-0.00904657 -0.106246 0)
(-0.0112948 -0.105958 0)
(-0.0130961 -0.106598 0)
(-0.0146206 -0.107683 0)
(-0.0160481 -0.109719 0)
(-0.0177003 -0.11302 0)
(-0.0199687 -0.117731 0)
(-0.023358 -0.123894 0)
(-0.0284067 -0.131359 0)
(-0.0356484 -0.13989 0)
(-0.0454435 -0.14905 0)
(-0.0581878 -0.158299 0)
(-0.0744201 -0.166963 0)
(-0.09492 -0.174461 0)
(-0.120355 -0.17975 0)
(-0.15047 -0.180133 0)
(-0.18396 -0.171103 0)
(-0.217413 -0.14834 0)
(-0.243532 -0.111767 0)
(-0.253804 -0.0685587 0)
(0.00108192 -0.0256549 0)
(-0.00226539 -0.135848 0)
(-0.00656169 -0.111668 0)
(-0.00921399 -0.103637 0)
(-0.0117621 -0.103725 0)
(-0.0140718 -0.104589 0)
(-0.016287 -0.105767 0)
(-0.0185482 -0.107655 0)
(-0.0211356 -0.110482 0)
(-0.0243872 -0.114332 0)
(-0.0286462 -0.119207 0)
(-0.0343218 -0.124939 0)
(-0.0418225 -0.131343 0)
(-0.0514695 -0.137995 0)
(-0.0635613 -0.144453 0)
(-0.0783398 -0.150045 0)
(-0.0960583 -0.153841 0)
(-0.116897 -0.154438 0)
(-0.14065 -0.150227 0)
(-0.165924 -0.139712 0)
(-0.189354 -0.121398 0)
(-0.206373 -0.0949108 0)
(-0.21312 -0.0639501 0)
(0.000764832 -0.0248895 0)
(-0.00253383 -0.131993 0)
(-0.00678675 -0.10826 0)
(-0.00958496 -0.100829 0)
(-0.0124088 -0.101116 0)
(-0.0151322 -0.102044 0)
(-0.0178972 -0.103184 0)
(-0.0208052 -0.104848 0)
(-0.0240665 -0.107185 0)
(-0.0279649 -0.110235 0)
(-0.0327639 -0.11396 0)
(-0.0387912 -0.118236 0)
(-0.0463286 -0.12285 0)
(-0.055603 -0.127452 0)
(-0.0668484 -0.131624 0)
(-0.0801789 -0.13478 0)
(-0.0956134 -0.13622 0)
(-0.112938 -0.135014 0)
(-0.131528 -0.129985 0)
(-0.150156 -0.119994 0)
(-0.16675 -0.104606 0)
(-0.178839 -0.0847086 0)
(-0.184275 -0.0628252 0)
(0.000535163 -0.0238659 0)
(-0.00280049 -0.128114 0)
(-0.00711047 -0.104771 0)
(-0.0100314 -0.0978336 0)
(-0.0130951 -0.0981985 0)
(-0.0161395 -0.0990763 0)
(-0.0193188 -0.100086 0)
(-0.0227044 -0.101476 0)
(-0.0264581 -0.103332 0)
(-0.0307877 -0.105667 0)
(-0.0359013 -0.108409 0)
(-0.0420456 -0.111471 0)
(-0.0494068 -0.114626 0)
(-0.0581509 -0.117614 0)
(-0.0684058 -0.120067 0)
(-0.080158 -0.121514 0)
(-0.0933044 -0.121362 0)
(-0.107545 -0.118888 0)
(-0.122281 -0.113352 0)
(-0.136501 -0.104256 0)
(-0.148729 -0.0916888 0)
(-0.157526 -0.0765319 0)
(-0.161806 -0.0604601 0)
(0.000387762 -0.0226339 0)
(-0.00303177 -0.124148 0)
(-0.00745703 -0.101187 0)
(-0.0104673 -0.0946771 0)
(-0.0137284 -0.0950383 0)
(-0.0170111 -0.0957962 0)
(-0.0204825 -0.0966178 0)
(-0.0241875 -0.097707 0)
(-0.0282646 -0.0991121 0)
(-0.0328544 -0.100817 0)
(-0.0381122 -0.10275 0)
(-0.0442106 -0.104811 0)
(-0.0512709 -0.106817 0)
(-0.0594082 -0.108566 0)
(-0.0686801 -0.10975 0)
(-0.0790181 -0.110004 0)
(-0.0902589 -0.108882 0)
(-0.102078 -0.105879 0)
(-0.113929 -0.100525 0)
(-0.125026 -0.0925873 0)
(-0.134337 -0.0823728 0)
(-0.140959 -0.0707476 0)
(-0.144285 -0.058964 0)
(0.00031405 -0.0212467 0)
(-0.0032134 -0.120065 0)
(-0.00777649 -0.097513 0)
(-0.0108383 -0.0913921 0)
(-0.0142511 -0.0916981 0)
(-0.0176985 -0.0922972 0)
(-0.0213613 -0.0929046 0)
(-0.0252649 -0.0936917 0)
(-0.0295191 -0.0946869 0)
(-0.0342302 -0.0958438 0)
(-0.0395027 -0.0971055 0)
(-0.045454 -0.0983597 0)
(-0.0521681 -0.0994731 0)
(-0.0597024 -0.100281 0)
(-0.0680744 -0.100549 0)
(-0.0771931 -0.0999962 0)
(-0.0868683 -0.098305 0)
(-0.0967974 -0.0951204 0)
(-0.10652 -0.0901665 0)
(-0.115436 -0.0833761 0)
(-0.1228 -0.0751466 0)
(-0.127982 -0.0662745 0)
(-0.130624 -0.057768 0)
(0.000298627 -0.0197631 0)
(-0.0033425 -0.115854 0)
(-0.00803403 -0.0937693 0)
(-0.0111105 -0.0880171 0)
(-0.0146293 -0.0882371 0)
(-0.0181759 -0.0886584 0)
(-0.0219484 -0.0890469 0)
(-0.0259579 -0.0895474 0)
(-0.0302848 -0.090169 0)
(-0.0350084 -0.0908616 0)
(-0.0402041 -0.0915637 0)
(-0.0459502 -0.0921784 0)
(-0.0523004 -0.0925994 0)
(-0.0592775 -0.0927 0)
(-0.0668602 -0.0923125 0)
(-0.0749584 -0.0912261 0)
(-0.0833878 -0.089232 0)
(-0.0918841 -0.0860821 0)
(-0.100072 -0.0816318 0)
(-0.10749 -0.0759035 0)
(-0.113591 -0.0693367 0)
(-0.117893 -0.0626856 0)
(-0.120164 -0.0568338 0)
(0.000320292 -0.0182327 0)
(-0.00342095 -0.111528 0)
(-0.00820155 -0.0899867 0)
(-0.0112587 -0.0845916 0)
(-0.0148387 -0.0847093 0)
(-0.018429 -0.0849474 0)
(-0.0222449 -0.0851241 0)
(-0.0262832 -0.0853586 0)
(-0.0306063 -0.0856475 0)
(-0.0352718 -0.0859442 0)
(-0.0403289 -0.0861866 0)
(-0.0458361 -0.0862939 0)
(-0.0518294 -0.0861735 0)
(-0.0583 -0.0857442 0)
(-0.0652103 -0.0848811 0)
(-0.0724876 -0.083447 0)
(-0.0799553 -0.08131 0)
(-0.0873958 -0.0783043 0)
(-0.0945096 -0.0743586 0)
(-0.100943 -0.0695603 0)
(-0.106287 -0.0643736 0)
(-0.110152 -0.0595358 0)
(-0.11239 -0.0558792 0)
(0.000352539 -0.0166909 0)
(-0.00344515 -0.107134 0)
(-0.0082463 -0.0862056 0)
(-0.0112568 -0.0811529 0)
(-0.0148564 -0.0811618 0)
(-0.0184423 -0.0812216 0)
(-0.0222468 -0.0811995 0)
(-0.0262553 -0.0811906 0)
(-0.0305184 -0.0811886 0)
(-0.0350755 -0.0811458 0)
(-0.0399627 -0.0810066 0)
(-0.045214 -0.0807085 0)
(-0.0508647 -0.0801638 0)
(-0.056892 -0.0793237 0)
(-0.0632388 -0.0781128 0)
(-0.0698657 -0.0764455 0)
(-0.076617 -0.0742445 0)
(-0.0833045 -0.0714183 0)
(-0.0896997 -0.0679198 0)
(-0.095545 -0.0638948 0)
(-0.100528 -0.059815 0)
(-0.104334 -0.0564415 0)
(-0.10687 -0.0545944 0)
(0.000370024 -0.0151622 0)
(-0.00339993 -0.102744 0)
(-0.00813434 -0.082472 0)
(-0.0110763 -0.0777364 0)
(-0.0146561 -0.0776343 0)
(-0.018196 -0.077526 0)
(-0.021945 -0.0773198 0)
(-0.0258791 -0.0770939 0)
(-0.0300421 -0.076836 0)
(-0.0344594 -0.0765018 0)
(-0.0391626 -0.0760418 0)
(-0.0441636 -0.0754054 0)
(-0.0494914 -0.0745303 0)
(-0.0551311 -0.073361 0)
(-0.0610188 -0.0718793 0)
(-0.0671353 -0.070041 0)
(-0.0733664 -0.067801 0)
(-0.0795406 -0.0651209 0)
(-0.0854924 -0.0619851 0)
(-0.091054 -0.0585647 0)
(-0.0959912 -0.0553206 0)
(-0.100064 -0.0530659 0)
(-0.103205 -0.0526199 0)
(0.000368215 -0.0136716 0)
(-0.00325677 -0.098461 0)
(-0.00784085 -0.0788344 0)
(-0.0106934 -0.0743737 0)
(-0.0142138 -0.0741623 0)
(-0.0176694 -0.0738965 0)
(-0.021328 -0.0735198 0)
(-0.0251539 -0.0730996 0)
(-0.0291874 -0.0726152 0)
(-0.0334455 -0.0720294 0)
(-0.0379559 -0.0712937 0)
(-0.042727 -0.070372 0)
(-0.0477636 -0.0692183 0)
(-0.0530652 -0.0677829 0)
(-0.0585855 -0.066073 0)
(-0.0643074 -0.064082 0)
(-0.0701576 -0.0617895 0)
(-0.0760068 -0.0591896 0)
(-0.0817416 -0.0563013 0)
(-0.0872459 -0.0532861 0)
(-0.0923738 -0.0506062 0)
(-0.0969717 -0.0491031 0)
(-0.101014 -0.0496236 0)
(0.000370111 -0.0122688 0)
(-0.0029854 -0.094387 0)
(-0.00736338 -0.0753399 0)
(-0.0101034 -0.0710972 0)
(-0.0135236 -0.0707844 0)
(-0.0168556 -0.0703713 0)
(-0.0203903 -0.0698355 0)
(-0.0240759 -0.069233 0)
(-0.0279543 -0.0685428 0)
(-0.0320357 -0.0677329 0)
(-0.036351 -0.0667564 0)
(-0.0409025 -0.0655884 0)
(-0.0456801 -0.0641853 0)
(-0.0506959 -0.0625229 0)
(-0.0559183 -0.0606021 0)
(-0.0613377 -0.0584521 0)
(-0.0669185 -0.0560608 0)
(-0.072578 -0.0534593 0)
(-0.0782464 -0.0506703 0)
(-0.0838689 -0.0478417 0)
(-0.0893682 -0.0454417 0)
(-0.094694 -0.0443172 0)
(-0.0999027 -0.0453333 0)
(0.000424646 -0.011044 0)
(-0.00257206 -0.0905964 0)
(-0.00673145 -0.0720271 0)
(-0.00932687 -0.0679446 0)
(-0.0126103 -0.0675427 0)
(-0.0157754 -0.0669935 0)
(-0.0191455 -0.0663067 0)
(-0.0226523 -0.0655304 0)
(-0.0263441 -0.064647 0)
(-0.0302236 -0.063625 0)
(-0.0343256 -0.0624341 0)
(-0.0386531 -0.0610373 0)
(-0.0431886 -0.0594081 0)
(-0.0479479 -0.0575318 0)
(-0.0529219 -0.0554032 0)
(-0.0580988 -0.0530654 0)
(-0.063478 -0.0505191 0)
(-0.0690336 -0.0478085 0)
(-0.07473 -0.0449583 0)
(-0.0805816 -0.0420945 0)
(-0.0865693 -0.039661 0)
(-0.0927425 -0.0385294 0)
(-0.0992541 -0.0395085 0)
(0.00058103 -0.010112 0)
(-0.00203119 -0.0871057 0)
(-0.00600318 -0.0689124 0)
(-0.00840624 -0.0649518 0)
(-0.0115256 -0.0644776 0)
(-0.0144767 -0.0638054 0)
(-0.0176379 -0.0629772 0)
(-0.0209188 -0.0620369 0)
(-0.0243721 -0.0609677 0)
(-0.0280091 -0.0597423 0)
(-0.0318578 -0.0583455 0)
(-0.0359222 -0.05673 0)
(-0.0401973 -0.0548816 0)
(-0.0446922 -0.0527875 0)
(-0.049414 -0.0504436 0)
(-0.0543636 -0.047878 0)
(-0.0595597 -0.0451176 0)
(-0.0650211 -0.042184 0)
(-0.0707562 -0.0391074 0)
(-0.0768367 -0.0359813 0)
(-0.0833178 -0.0332029 0)
(-0.0903258 -0.0316299 0)
(-0.0981294 -0.0319983 0)
(0.00087132 -0.00958339 0)
(-0.00140038 -0.0838683 0)
(-0.00525081 -0.0659863 0)
(-0.00739878 -0.0621419 0)
(-0.0103392 -0.0616192 0)
(-0.0130327 -0.0608384 0)
(-0.0159412 -0.0598856 0)
(-0.0189438 -0.0587931 0)
(-0.0221025 -0.057549 0)
(-0.025435 -0.056135 0)
(-0.0289638 -0.0545306 0)
(-0.032697 -0.0527023 0)
(-0.0366435 -0.0506332 0)
(-0.0408121 -0.0483104 0)
(-0.0452182 -0.0457337 0)
(-0.0498808 -0.0429094 0)
(-0.0548252 -0.039865 0)
(-0.0601021 -0.0366064 0)
(-0.0657669 -0.0331496 0)
(-0.0719316 -0.0295559 0)
(-0.0787012 -0.0261581 0)
(-0.0862984 -0.0237311 0)
(-0.095122 -0.0229074 0)
(0.00129071 -0.00956366 0)
(-0.000726716 -0.0807842 0)
(-0.0045426 -0.0632387 0)
(-0.00637099 -0.059532 0)
(-0.00913346 -0.0589902 0)
(-0.0115364 -0.0581186 0)
(-0.0141646 -0.0570623 0)
(-0.0168492 -0.0558405 0)
(-0.0196684 -0.0544434 0)
(-0.0226346 -0.0528573 0)
(-0.0257701 -0.0510591 0)
(-0.0290906 -0.0490265 0)
(-0.0326106 -0.0467388 0)
(-0.036347 -0.0441827 0)
(-0.0403164 -0.0413549 0)
(-0.0445486 -0.0382508 0)
(-0.0490817 -0.0348724 0)
(-0.0539763 -0.0312157 0)
(-0.0593153 -0.0272679 0)
(-0.0652393 -0.0230583 0)
(-0.0718779 -0.0188277 0)
(-0.0795293 -0.0152289 0)
(-0.0886859 -0.0127177 0)
(0.00183487 -0.0101648 0)
(-5.09729e-05 -0.0777765 0)
(-0.00394054 -0.0606916 0)
(-0.00539035 -0.0571674 0)
(-0.00800823 -0.0566373 0)
(-0.0101057 -0.0556946 0)
(-0.012458 -0.0545634 0)
(-0.0148199 -0.0532439 0)
(-0.0172827 -0.0517269 0)
(-0.0198544 -0.0499979 0)
(-0.0225545 -0.0480383 0)
(-0.0254007 -0.045826 0)
(-0.0284114 -0.0433404 0)
(-0.0316065 -0.0405666 0)
(-0.0350069 -0.0374945 0)
(-0.0386403 -0.0341145 0)
(-0.0425455 -0.0304016 0)
(-0.0467864 -0.0263292 0)
(-0.0514462 -0.0218591 0)
(-0.0566588 -0.0169841 0)
(-0.0625575 -0.0118351 0)
(-0.06947 -0.00687487 0)
(-0.0779077 -0.00229184 0)
(0.00250155 -0.0115042 0)
(0.000593206 -0.0747632 0)
(-0.00349343 -0.0583604 0)
(-0.00452667 -0.0551021 0)
(-0.00706971 -0.0546006 0)
(-0.00887271 -0.0536068 0)
(-0.0109923 -0.0524341 0)
(-0.0130657 -0.0510526 0)
(-0.0152035 -0.0494565 0)
(-0.0174051 -0.0476317 0)
(-0.0196849 -0.0455588 0)
(-0.0220584 -0.0432156 0)
(-0.0245423 -0.0405801 0)
(-0.027154 -0.0376364 0)
(-0.02991 -0.0343719 0)
(-0.0328284 -0.0307648 0)
(-0.0359377 -0.0267774 0)
(-0.0392855 -0.0223583 0)
(-0.0429288 -0.017445 0)
(-0.0469642 -0.0119948 0)
(-0.0514799 -0.00602825 0)
(-0.0566761 0.000222781 0)
(-0.0631643 0.00671139 0)
(0.0032477 -0.0135579 0)
(0.00116152 -0.0715119 0)
(-0.00322174 -0.056106 0)
(-0.00383196 -0.0532257 0)
(-0.00638861 -0.0527432 0)
(-0.00793312 -0.0517193 0)
(-0.00988951 -0.0505336 0)
(-0.0117394 -0.0491255 0)
(-0.0136239 -0.047494 0)
(-0.0155303 -0.0456243 0)
(-0.0174662 -0.0434948 0)
(-0.019442 -0.0410817 0)
(-0.0214693 -0.0383629 0)
(-0.0235581 -0.0353232 0)
(-0.0257093 -0.0319492 0)
(-0.0279241 -0.0282142 0)
(-0.0302118 -0.0240727 0)
(-0.0325853 -0.019461 0)
(-0.0350514 -0.0143031 0)
(-0.037638 -0.00853181 0)
(-0.0403614 -0.00207477 0)
(-0.0433168 0.00502756 0)
(-0.0470341 0.0128204 0)
(0.00399845 -0.0160588 0)
(0.00162421 -0.0677265 0)
(-0.00309774 -0.0536684 0)
(-0.00330797 -0.0512742 0)
(-0.00595178 -0.0507767 0)
(-0.00728376 -0.0497473 0)
(-0.00914553 -0.0485666 0)
(-0.0108418 -0.0471599 0)
(-0.0125553 -0.0455266 0)
(-0.0142603 -0.0436492 0)
(-0.0159584 -0.0415058 0)
(-0.0176563 -0.0390719 0)
(-0.0193597 -0.0363274 0)
(-0.0210665 -0.0332636 0)
(-0.0227585 -0.0298675 0)
(-0.0244168 -0.0261167 0)
(-0.0260271 -0.0219648 0)
(-0.0275616 -0.0173529 0)
(-0.0289647 -0.0122177 0)
(-0.0301809 -0.00648761 0)
(-0.0311528 -7.5252e-05 0)
(-0.0317617 0.00708546 0)
(-0.0324594 0.0151906 0)
(0.00467889 -0.019078 0)
(0.00198384 -0.0635786 0)
(-0.00304552 -0.0512259 0)
(-0.00290228 -0.0494085 0)
(-0.0056514 -0.0488504 0)
(-0.00680902 -0.0478495 0)
(-0.00860971 -0.0466842 0)
(-0.0101982 -0.0452942 0)
(-0.0117966 -0.0436757 0)
(-0.0133718 -0.04181 0)
(-0.0149243 -0.0396768 0)
(-0.0164571 -0.0372523 0)
(-0.0179715 -0.0345218 0)
(-0.0194498 -0.031487 0)
(-0.020858 -0.0281424 0)
(-0.0221654 -0.0244708 0)
(-0.0233373 -0.0204327 0)
(-0.024317 -0.01599 0)
(-0.0249973 -0.0111122 0)
(-0.025274 -0.0057384 0)
(-0.0250353 0.000168769 0)
(-0.0239393 0.00669557 0)
(-0.0222017 0.0139953 0)
(0.00515492 -0.023205 0)
(0.00221132 -0.0596896 0)
(-0.00295904 -0.049417 0)
(-0.00253991 -0.0482393 0)
(-0.00532249 -0.0475865 0)
(-0.00632948 -0.046647 0)
(-0.00804587 -0.045502 0)
(-0.00952897 -0.0441341 0)
(-0.0110244 -0.0425365 0)
(-0.0124966 -0.0406935 0)
(-0.0139469 -0.0385843 0)
(-0.0153753 -0.0361877 0)
(-0.0167764 -0.0334991 0)
(-0.0181204 -0.0305282 0)
(-0.0193666 -0.0272863 0)
(-0.0204822 -0.0237557 0)
(-0.0214224 -0.0199134 0)
(-0.0221191 -0.0157478 0)
(-0.0224332 -0.0112504 0)
(-0.0222513 -0.00638978 0)
(-0.0214412 -0.00116597 0)
(-0.0195483 0.0044816 0)
(-0.0166564 0.0103975 0)