/*--------------------------------*- C++ -*----------------------------------*\
| =========                 |                                                 |
| \\      /  F ield         | OpenFOAM: The Open Source CFD Toolbox           |
|  \\    /   O peration     | Version:  2206                                  |
|   \\  /    A nd           | Website:  www.openfoam.com                      |
|    \\/     M anipulation  |                                                 |
\*---------------------------------------------------------------------------*/
FoamFile
{
    version     2.0;
    format      ascii;
    arch        "LSB;label=32;scalar=64";
    class       volScalarField;
    location    "0.45";
    object      p;
}
// * * * * * * * * * * * * * * * * * * * * * * * * * * * * * * * * * * * * * //

dimensions      [1 -1 -2 0 0 0 0];

internalField   nonuniform List<scalar> 
2268
(
743.564
743.093
748.587
757.613
764.756
768.078
768.314
768.322
770.452
775.672
784.127
795.758
810.531
828.319
849.019
872.425
897.595
922.106
939.999
953.231
934.779
928.675
968.285
683.96
682.92
688.25
697.321
704.471
707.842
708.162
708.306
710.592
715.949
724.498
736.128
750.67
768.104
788.293
811.092
835.897
861.154
881.976
897.072
882.077
858.678
902.497
623.478
621.718
626.441
635.675
642.77
646.258
646.755
647.167
649.76
655.385
664.127
675.873
690.521
707.914
727.894
750.041
773.561
797.202
818.046
833.259
825.806
798.303
843.108
562.509
559.685
563.647
572.408
579.72
583.444
584.206
585.002
588.031
594.038
603.055
614.977
629.697
647.08
666.899
688.668
711.458
733.768
753.244
767.543
767.534
756.096
794.722
501.576
497.171
499.915
507.819
515.464
519.568
520.659
521.923
525.498
531.973
541.321
553.454
568.288
585.697
605.434
626.987
649.439
671.23
690.163
704.542
711.382
714.475
752.99
441.28
434.697
435.34
441.94
450.05
454.758
456.211
457.974
462.175
469.197
478.933
491.319
506.306
523.784
543.519
565.008
587.369
609.092
628.249
643.47
654.882
666.073
703.53
382.258
372.562
370.188
375.038
383.653
389.187
391.084
393.339
398.146
405.703
415.827
428.496
443.695
461.335
481.169
502.717
525.185
547.102
566.788
582.764
595.552
607.973
636.204
325.564
312.495
305.968
308.283
316.839
323.043
325.531
328.481
333.942
341.939
352.304
365.112
380.395
398.185
418.342
440.202
463.009
485.285
505.541
522.046
534.004
543.264
548.372
283.15
282.86
281.434
280.174
279.85
279.899
279.869
279.795
279.748
279.734
279.749
279.814
279.944
280.167
280.544
281.211
282.239
283.319
283.85
283.103
282.72
281.171
279.927
279.712
279.837
279.812
279.73
279.681
279.664
279.678
279.739
279.862
280.073
280.429
281.087
282.147
283.29
283.847
283.078
282.528
280.586
279.501
279.498
279.731
279.725
279.648
279.6
279.581
279.59
279.642
279.751
279.939
280.259
280.897
282.019
283.288
283.902
283.077
282.075
279.435
278.83
279.231
279.583
279.609
279.55
279.508
279.487
279.489
279.527
279.614
279.768
280.027
280.615
281.824
283.295
284.013
283.113
280.713
278.245
278.225
279.005
279.42
279.478
279.443
279.408
279.384
279.376
279.395
279.452
279.558
279.724
280.205
281.507
283.255
284.184
283.567
279.217
277.912
278.127
278.874
279.269
279.349
279.334
279.303
279.273
279.254
279.249
279.267
279.312
279.343
279.609
280.976
283.045
284.488
281.378
278.983
277.94
278.245
278.83
279.147
279.231
279.227
279.195
279.157
279.123
279.091
279.062
279.031
278.88
278.758
280.044
282.363
284.954
272.385
278.565
278.152
278.482
278.838
279.055
279.128
279.123
279.085
279.037
278.988
278.927
278.843
278.72
278.337
277.565
277.951
280.344
285.239
240.301
223.908
208.686
204.205
211.59
218.181
221.214
225.469
232.4
241.414
252.346
265.498
280.829
298.22
318.327
340.917
364.884
388.465
410.233
427.9
436.839
430.9
364.798
134.334
112.156
83.0377
67.1539
72.9919
79.0453
80.4824
83.9615
90.749
99.6235
110.374
124.041
142.003
163.542
185.934
208.116
233.074
258.295
282.538
302.761
313.761
312.221
296.051
54.2093
27.0741
8.63789
5.08537
7.74112
9.44714
9.52417
10.3828
12.3555
15.0846
18.4126
22.6563
28.4546
36.5059
49.3984
68.2682
94.4223
125.856
160.123
187.222
205.296
218.954
230.445
1.14589
-0.120434
-0.203478
-0.0952978
-0.093465
-0.083436
-0.0770028
-0.0757922
-0.0743725
-0.0664075
-0.0476405
-0.0165946
0.0295744
0.189884
0.930177
4.38972
11.0691
26.024
52.3714
79.0383
104.87
129.837
147.351
-0.228016
-0.298884
-0.288986
-0.243375
-0.231916
-0.226132
-0.221673
-0.218982
-0.215402
-0.208141
-0.195055
-0.174524
-0.138976
-0.0953359
-0.185061
-0.231152
-0.144894
0.333258
3.52359
10.9266
26.1635
48.8533
67.9866
-0.366228
-0.375443
-0.384129
-0.37667
-0.372817
-0.368939
-0.365134
-0.36208
-0.358297
-0.352418
-0.343658
-0.33313
-0.325154
-0.348378
-0.415576
-0.379264
-0.289346
-0.235185
-0.195146
-0.102895
0.0227845
3.85454
15.7252
-0.515524
-0.523318
-0.5235
-0.51857
-0.515037
-0.511998
-0.509089
-0.506375
-0.503252
-0.498956
-0.493408
-0.487947
-0.484568
-0.4901
-0.525428
-0.530138
-0.488032
-0.478984
-0.480796
-0.475186
-0.575086
-0.729348
-0.61516
-0.66091
-0.661836
-0.660431
-0.659153
-0.657162
-0.655061
-0.652932
-0.650909
-0.6488
-0.64633
-0.643654
-0.641771
-0.642583
-0.650648
-0.670526
-0.68431
-0.672943
-0.672868
-0.684365
-0.715056
-0.793554
-0.96437
-0.988508
-0.804365
-0.803495
-0.802022
-0.801171
-0.799901
-0.798447
-0.796939
-0.795557
-0.794356
-0.793323
-0.79257
-0.792532
-0.794397
-0.800692
-0.812123
-0.826195
-0.833338
-0.84653
-0.865917
-0.919214
-1.02949
-1.16815
-1.20392
-0.947763
-0.946375
-0.94484
-0.944057
-0.943157
-0.942123
-0.941074
-0.940175
-0.939574
-0.939384
-0.939729
-0.940869
-0.943404
-0.948609
-0.956705
-0.96765
-0.979523
-0.997229
-1.02132
-1.07867
-1.17948
-1.31391
-1.37089
-1.09067
-1.08934
-1.08808
-1.0874
-1.0867
-1.08595
-1.08521
-1.08463
-1.08435
-1.08451
-1.08529
-1.0869
-1.08966
-1.09429
-1.10093
-1.11047
-1.12312
-1.14038
-1.1719
-1.22393
-1.2976
-1.38329
-1.42811
-1.23358
-1.23252
-1.23156
-1.23097
-1.2304
-1.22982
-1.22928
-1.22888
-1.22875
-1.22901
-1.22985
-1.23145
-1.23408
-1.23818
-1.24392
-1.25235
-1.26375
-1.28012
-1.309
-1.35332
-1.4083
-1.4602
-1.48098
-1.37666
-1.37588
-1.37517
-1.37465
-1.37417
-1.37368
-1.37324
-1.37292
-1.37281
-1.37304
-1.37376
-1.37513
-1.37739
-1.38084
-1.38582
-1.39294
-1.4027
-1.41657
-1.43787
-1.46917
-1.51013
-1.54813
-1.56508
-1.51996
-1.51941
-1.51887
-1.51842
-1.51797
-1.5175
-1.51707
-1.51673
-1.51657
-1.51666
-1.51714
-1.51816
-1.5199
-1.52259
-1.52654
-1.53214
-1.53986
-1.55057
-1.56547
-1.58516
-1.60805
-1.6281
-1.63843
-1.66353
-1.66313
-1.6627
-1.66226
-1.6618
-1.66131
-1.66082
-1.66038
-1.66006
-1.65994
-1.66009
-1.66065
-1.66175
-1.66356
-1.6663
-1.67018
-1.67549
-1.68268
-1.69212
-1.70357
-1.71551
-1.72449
-1.72632
-1.80735
-1.80704
-1.80665
-1.80621
-1.8057
-1.80513
-1.80453
-1.80394
-1.8034
-1.80297
-1.80272
-1.80274
-1.80312
-1.80399
-1.80546
-1.80765
-1.81071
-1.81476
-1.81974
-1.82521
-1.83006
-1.83234
-1.8298
-1.95143
-1.95116
-1.95077
-1.95029
-1.9497
-1.94902
-1.94827
-1.94747
-1.94665
-1.94587
-1.94517
-1.9446
-1.94422
-1.94411
-1.94432
-1.9449
-1.94588
-1.94724
-1.9488
-1.95011
-1.95029
-1.94798
-1.94197
-2.09575
-2.09549
-2.09507
-2.09453
-2.09384
-2.09303
-2.09209
-2.09105
-2.08994
-2.08877
-2.08758
-2.0864
-2.08525
-2.08418
-2.08318
-2.08226
-2.08138
-2.08043
-2.07918
-2.07724
-2.074
-2.06859
-2.06023
-2.24031
-2.24004
-2.23958
-2.23897
-2.23817
-2.2372
-2.23606
-2.23477
-2.23334
-2.23177
-2.23009
-2.2283
-2.2264
-2.22441
-2.22229
-2.22001
-2.21749
-2.21461
-2.21114
-2.20675
-2.20099
-2.19327
-2.18308
-2.38514
-2.38485
-2.38433
-2.38363
-2.38271
-2.38158
-2.38024
-2.3787
-2.37694
-2.37498
-2.37281
-2.37043
-2.36782
-2.36497
-2.36182
-2.35833
-2.3544
-2.34989
-2.34461
-2.33828
-2.33059
-2.3211
-2.30948
-2.53024
-2.52992
-2.52934
-2.52855
-2.52751
-2.52623
-2.52468
-2.52288
-2.52082
-2.51848
-2.51585
-2.51291
-2.50965
-2.50601
-2.50194
-2.49738
-2.49223
-2.48636
-2.47958
-2.47171
-2.46248
-2.45159
-2.43882
-2.67563
-2.67527
-2.67463
-2.67377
-2.67261
-2.67117
-2.66944
-2.6674
-2.66504
-2.66234
-2.65929
-2.65584
-2.65197
-2.64763
-2.64275
-2.63727
-2.63107
-2.62405
-2.61604
-2.60689
-2.59641
-2.58437
-2.57061
-2.82133
-2.82095
-2.82024
-2.8193
-2.81804
-2.81646
-2.81454
-2.81228
-2.80965
-2.80664
-2.8032
-2.7993
-2.7949
-2.78994
-2.78435
-2.77807
-2.77098
-2.76298
-2.75394
-2.74373
-2.7322
-2.71917
-2.70454
-2.96736
-2.96695
-2.9662
-2.96518
-2.96382
-2.96211
-2.96004
-2.95758
-2.95472
-2.95142
-2.94764
-2.94335
-2.93848
-2.93299
-2.9268
-2.91984
-2.912
-2.90319
-2.89328
-2.88216
-2.86973
-2.85583
-2.84039
-3.11375
-3.11332
-3.11251
-3.11144
-3.10999
-3.10818
-3.10597
-3.10334
-3.10028
-3.09673
-3.09267
-3.08804
-3.08279
-3.07686
-3.07017
-3.06264
-3.05417
-3.04468
-3.03404
-3.02216
-3.00894
-2.99425
-2.97803
-3.2605
-3.26006
-3.25921
-3.25809
-3.25657
-3.25466
-3.25235
-3.24959
-3.24636
-3.24262
-3.23833
-3.23343
-3.22787
-3.22158
-3.21449
-3.2065
-3.19753
-3.18748
-3.17624
-3.16372
-3.14982
-3.13442
-3.11744
-3.40762
-3.40721
-3.40631
-3.40514
-3.40357
-3.4016
-3.3992
-3.39634
-3.39299
-3.38911
-3.38465
-3.37955
-3.37376
-3.3672
-3.3598
-3.35147
-3.34211
-3.33163
-3.31991
-3.30686
-3.29238
-3.27635
-3.25866
-3.55515
-3.55473
-3.5538
-3.55262
-3.55101
-3.549
-3.54654
-3.54363
-3.5402
-3.53623
-3.53165
-3.52643
-3.52048
-3.51375
-3.50614
-3.49757
-3.48795
-3.47716
-3.46509
-3.45164
-3.4367
-3.42013
-3.40181
-3.70305
-3.70264
-3.7017
-3.70051
-3.69888
-3.69686
-3.69439
-3.69145
-3.68799
-3.68398
-3.67936
-3.67408
-3.66807
-3.66125
-3.65354
-3.64485
-3.63507
-3.6241
-3.61183
-3.59812
-3.58285
-3.56587
-3.54705
-3.85133
-3.85094
-3.84998
-3.84881
-3.84719
-3.84518
-3.84273
-3.83981
-3.83637
-3.83238
-3.82778
-3.82251
-3.81651
-3.8097
-3.802
-3.7933
-3.78351
-3.7725
-3.76016
-3.74635
-3.73093
-3.71372
-3.69455
-3.99997
-3.9996
-3.99864
-3.99751
-3.99592
-3.99396
-3.99156
-3.9887
-3.98533
-3.98141
-3.97689
-3.97172
-3.96581
-3.95911
-3.95151
-3.94293
-3.93325
-3.92236
-3.91012
-3.89639
-3.881
-3.86377
-3.84448
-4.14898
-4.14865
-4.14767
-4.14661
-4.14508
-4.1432
-4.14088
-4.13812
-4.13486
-4.13107
-4.1267
-4.12168
-4.11596
-4.10945
-4.10207
-4.09372
-4.0843
-4.07367
-4.06171
-4.04824
-4.03309
-4.01608
-3.99695
-4.29835
-4.29813
-4.29699
-4.29608
-4.29464
-4.29288
-4.29068
-4.28805
-4.28495
-4.28134
-4.27717
-4.27239
-4.26692
-4.2607
-4.25365
-4.24565
-4.23661
-4.2264
-4.21488
-4.20188
-4.18721
-4.17068
-4.152
-4.44801
-4.44781
-4.44677
-4.44594
-4.4446
-4.44297
-4.44092
-4.43846
-4.43556
-4.43218
-4.42827
-4.42379
-4.41865
-4.41281
-4.40617
-4.39865
-4.39013
-4.38048
-4.36958
-4.35725
-4.34329
-4.32751
-4.30961
-4.59795
-4.59778
-4.59685
-4.59613
-4.5949
-4.59342
-4.59154
-4.58929
-4.58663
-4.58352
-4.57993
-4.5758
-4.57107
-4.56568
-4.55956
-4.55261
-4.54474
-4.53581
-4.5257
-4.51424
-4.50123
-4.48649
-4.46971
-4.74821
-4.74809
-4.74727
-4.74667
-4.74556
-4.74425
-4.74256
-4.74055
-4.73815
-4.73536
-4.73213
-4.72841
-4.72416
-4.71931
-4.71379
-4.70752
-4.70041
-4.69234
-4.68319
-4.67279
-4.66098
-4.64754
-4.63222
-4.89882
-4.89881
-4.89807
-4.8976
-4.89663
-4.8955
-4.89403
-4.89227
-4.89018
-4.88774
-4.88491
-4.88166
-4.87794
-4.87369
-4.86886
-4.86337
-4.85713
-4.85005
-4.84201
-4.83287
-4.82246
-4.81061
-4.79706
-5.04982
-5.04991
-5.04924
-5.0489
-5.04808
-5.04714
-5.04591
-5.04443
-5.04268
-5.04062
-5.03824
-5.03551
-5.03237
-5.0288
-5.02473
-5.02011
-5.01487
-5.0089
-5.00212
-4.99441
-4.98562
-4.97559
-4.96412
-5.20094
-5.2011
-5.20051
-5.20029
-5.19962
-5.19888
-5.19791
-5.19673
-5.19533
-5.19369
-5.1918
-5.18962
-5.18712
-5.18428
-5.18104
-5.17737
-5.17319
-5.16845
-5.16305
-5.15691
-5.14991
-5.14192
-5.13276
-5.35196
-5.35214
-5.35168
-5.35153
-5.35104
-5.3505
-5.34978
-5.34892
-5.34789
-5.34669
-5.3453
-5.3437
-5.34187
-5.33979
-5.33743
-5.33475
-5.33171
-5.32825
-5.32432
-5.31985
-5.31476
-5.30894
-5.30227
-5.50276
-5.50297
-5.50264
-5.50258
-5.50226
-5.50192
-5.50146
-5.5009
-5.50024
-5.49947
-5.49858
-5.49757
-5.49641
-5.49509
-5.4936
-5.49192
-5.49002
-5.48787
-5.48543
-5.48267
-5.47954
-5.47597
-5.47193
-5.65443
-5.65471
-5.65453
-5.65457
-5.65443
-5.6543
-5.65411
-5.65388
-5.6536
-5.65329
-5.65293
-5.65252
-5.65206
-5.65155
-5.65098
-5.65035
-5.64965
-5.64888
-5.64802
-5.64707
-5.64603
-5.64481
-5.64353
226.739
236.788
252.622
244.538
266.11
254.871
241.926
232.804
231.97
230.94
234.049
244.01
156.125
163.847
175.329
190.005
82.8377
95.2449
109.792
125.341
26.9016
36.3954
48.6158
61.1317
-0.42863
0.219695
3.53037
9.59127
-0.949427
-0.922467
-0.844874
-0.716098
-1.15784
-1.12124
-1.09547
-1.0653
-1.33695
-1.29506
-1.2489
-1.20417
-1.41041
-1.38105
-1.34179
-1.29882
-1.45918
-1.4403
-1.41803
-1.39347
-1.55627
-1.5452
-1.52931
-1.51001
-1.63612
-1.63122
-1.62255
-1.61121
-1.72127
-1.71631
-1.70948
-1.70091
-1.82369
-1.81838
-1.81171
-1.80376
-1.93442
-1.92856
-1.92167
-1.91379
-2.05154
-2.04513
-2.03788
-2.02983
-2.17347
-2.16661
-2.15906
-2.15084
-2.29913
-2.29189
-2.28409
-2.27571
-2.42785
-2.4203
-2.41226
-2.40374
-2.55911
-2.55127
-2.543
-2.53432
-2.69253
-2.68441
-2.67589
-2.66702
-2.82785
-2.81943
-2.81064
-2.80152
-2.96495
-2.95619
-2.94707
-2.93762
-3.10378
-3.09465
-3.08514
-3.07529
-3.24442
-3.23489
-3.22496
-3.21465
-3.38702
-3.37711
-3.36678
-3.35604
-3.53178
-3.52153
-3.51082
-3.49967
-3.67892
-3.66841
-3.65739
-3.64589
-3.82866
-3.81799
-3.80677
-3.79501
-3.98116
-3.97048
-3.95919
-3.94729
-4.13651
-4.126
-4.11486
-4.10308
-4.29469
-4.28454
-4.27377
-4.26235
-4.45567
-4.44609
-4.43591
-4.42508
-4.61935
-4.61056
-4.60121
-4.59124
-4.78565
-4.77787
-4.76957
-4.76073
-4.95442
-4.94782
-4.9408
-4.93332
-5.12504
-5.11979
-5.1142
-5.10826
-5.29665
-5.29283
-5.28878
-5.28447
-5.46851
-5.46623
-5.4638
-5.46122
-5.64249
-5.64181
-5.64111
-5.64039
235.986
277.459
278.431
278.776
278.884
278.95
278.986
278.97
278.916
278.847
278.772
278.666
278.489
278.208
277.436
275.501
272.662
272.587
284.848
240.685
273.555
278.224
278.943
278.81
278.806
278.837
278.79
278.692
278.591
278.493
278.349
278.046
277.621
276.6
274.057
269.647
262.697
290.614
263.17
270.353
280.071
279.077
278.6
278.611
278.745
278.637
278.453
278.331
278.252
278.118
277.743
277.304
276.379
274.441
272.314
267.023
285.995
217.999
260.524
282.048
280.597
278.603
278.457
278.825
278.524
278.187
278.062
278.098
278.021
277.582
277.305
276.79
276.086
275.502
274.737
289.902
156.061
216.023
291.78
287.696
278.875
278.261
278.75
278.524
277.922
277.749
277.868
277.863
277.505
277.282
277.02
277.501
278.007
280.865
285.097
86.1216
134.974
191.188
225.423
229.341
244.295
269.185
279.086
276.102
269.776
266.059
270.411
276.695
274.185
276.573
276.602
275.88
290.712
397.732
26.0704
54.1231
88.6818
126.824
157.918
189.757
212.741
235.122
240.976
208.907
190.123
201.305
225.423
216.275
242.378
237.097
244.33
398.392
679.291
-0.432641
6.56818
24.0638
43.6721
67.2193
90.8503
111.452
131.843
143.499
128.209
116.799
122.02
139.04
150.801
191.771
247.949
398.735
657.256
958.304
-1.03626
-1.00451
-0.768001
1.07045
8.81854
19.5594
29.746
37.9448
45.9474
49.4694
49.1694
49.8344
54.1997
65.778
106.349
218.651
453.082
753.43
1016.16
-1.14466
-1.16394
-1.10851
-1.1598
-1.07781
-0.957244
-0.716499
0.3688
2.19098
3.87902
4.52595
4.77402
5.4651
7.62741
17.8946
75.1701
312.495
650.412
857.756
-1.2416
-1.22976
-1.20449
-1.2364
-1.16901
-1.07858
-0.980484
-0.854774
-0.719777
-0.572621
-0.435961
-0.343097
-0.220859
0.0359195
2.01455
13.2975
88.6344
452.673
628.378
-1.35536
-1.33449
-1.31319
-1.29736
-1.25194
-1.17104
-1.07295
-0.964581
-0.849939
-0.732321
-0.607859
-0.487099
-0.316315
-0.181197
0.87173
6.06036
21.7851
309.446
418.761
-1.47671
-1.44764
-1.43087
-1.4138
-1.35083
-1.26807
-1.17891
-1.08304
-0.981431
-0.877134
-0.766655
-0.64214
-0.497512
-0.316965
0.516387
3.23364
62.9271
221.151
280.362
-1.59245
-1.56833
-1.53323
-1.49384
-1.43882
-1.37056
-1.29412
-1.20987
-1.11929
-1.02591
-0.92831
-0.815106
-0.712494
-0.718128
-0.267667
5.4881
103.675
181.126
207.316
-1.68469
-1.65699
-1.62639
-1.58788
-1.53888
-1.48042
-1.41373
-1.33948
-1.25919
-1.17647
-1.09456
-1.00455
-0.944753
-1.26773
-2.40349
1.48067
87.4293
148.632
157.637
-1.78857
-1.76228
-1.73136
-1.69444
-1.64986
-1.59763
-1.53828
-1.47262
-1.40218
-1.32986
-1.2625
-1.21245
-1.22631
-1.52157
-3.37677
-8.49113
24.4216
82.702
90.6439
-1.89904
-1.87394
-1.84399
-1.80895
-1.76807
-1.72101
-1.66788
-1.60949
-1.54785
-1.48656
-1.43324
-1.40753
-1.45934
-1.60742
-2.19239
-4.50633
-2.25431
-11.0314
25.07
-2.01504
-1.99042
-1.96184
-1.92903
-1.89162
-1.84914
-1.80153
-1.74969
-1.69587
-1.64384
-1.60103
-1.57845
-1.59254
-1.64989
-1.56185
-1.52708
-9.45521
-30.5513
9.1643
-2.13593
-2.11174
-2.08439
-2.05369
-2.0194
-1.98104
-1.93859
-1.89309
-1.84664
-1.80172
-1.76262
-1.73807
-1.71307
-1.71674
-1.5994
-1.50711
-5.62621
-10.1203
3.11461
-2.26077
-2.23724
-2.2108
-2.18193
-2.1504
-2.11594
-2.07869
-2.0399
-2.00115
-1.96271
-1.92317
-1.89948
-1.85841
-1.84774
-1.80368
-1.78081
2.22462
3.46032
5.6427
-2.3887
-2.36547
-2.34004
-2.31278
-2.28369
-2.25307
-2.22132
-2.19013
-2.16056
-2.13037
-2.09671
-2.06311
-2.02107
-1.97901
-1.88034
-1.79134
2.36362
4.96564
5.94234
-2.51914
-2.49608
-2.47135
-2.44534
-2.41844
-2.39113
-2.36537
-2.34281
-2.32458
-2.30429
-2.2771
-2.23576
-2.19431
-2.10699
-2.00981
-0.807183
5.38245
3.93428
6.34914
-2.6516
-2.62847
-2.60398
-2.57866
-2.55303
-2.52876
-2.5093
-2.49682
-2.48863
-2.48249
-2.46687
-2.42851
-2.40466
-2.29761
-2.48076
-3.04856
-2.01643
0.870089
3.06286
-2.78572
-2.76217
-2.73741
-2.71205
-2.6869
-2.66458
-2.65032
-2.64639
-2.64984
-2.65718
-2.65871
-2.63195
-2.59331
-2.44929
-2.32223
-2.70253
-3.4975
1.13697
-1.61866
-2.92128
-2.89692
-2.87126
-2.84504
-2.81916
-2.79698
-2.78472
-2.78467
-2.79676
-2.82221
-2.84508
-2.82964
-2.75438
-2.53146
-2.21697
-2.2307
-1.25459
12.8726
16.6611
-3.05826
-3.03246
-3.00558
-2.97758
-2.94949
-2.92461
-2.9086
-2.90429
-2.91767
-2.96029
-3.00681
-3.00519
-2.91504
-2.69479
-2.49226
-2.452
-1.6214
6.02656
15.4716
-3.19676
-3.16972
-3.14082
-3.11034
-3.07862
-3.04746
-3.02036
-3.00121
-3.00305
-3.04735
-3.11255
-3.13107
-3.06459
-2.9451
-2.9545
-3.09776
-2.83849
-1.19569
21.1886
-3.33737
-3.30873
-3.27763
-3.24447
-3.20868
-3.16869
-3.12432
-3.08029
-3.05795
-3.08759
-3.15731
-3.19932
-3.1739
-3.1497
-3.23917
-3.33241
-3.39872
-2.44598
28.2732
-3.48024
-3.45005
-3.41683
-3.38126
-3.34253
-3.29517
-3.23684
-3.17342
-3.12873
-3.13959
-3.20928
-3.27848
-3.28287
-3.27349
-3.32788
-3.34393
-3.40046
-1.41816
38.0708
-3.62574
-3.59417
-3.55911
-3.52144
-3.4809
-3.42972
-3.36681
-3.29927
-3.2464
-3.25256
-3.32418
-3.4183
-3.44265
-3.41503
-3.35364
-3.25868
-2.73654
3.6272
58.6145
-3.77431
-3.7416
-3.70498
-3.66509
-3.62266
-3.56986
-3.50497
-3.43933
-3.3916
-3.39529
-3.45605
-3.54284
-3.53187
-3.42734
-3.24653
-2.88305
-1.57461
24.5376
84.2168
-3.92637
-3.89293
-3.85507
-3.81271
-3.7676
-3.71379
-3.64289
-3.57081
-3.52479
-3.51899
-3.56752
-3.61136
-3.5396
-3.36623
-3.0144
-2.43103
8.22284
37.4
83.8621
-4.08218
-4.04866
-4.01038
-3.96693
-3.9189
-3.86379
-3.79302
-3.70316
-3.64633
-3.6314
-3.67104
-3.7262
-3.72329
-3.40373
-2.50189
0.422137
3.36602
18.3343
57.7935
-4.24203
-4.20912
-4.17129
-4.12778
-4.07836
-4.02186
-3.9523
-3.86446
-3.78905
-3.76001
-3.78857
-3.8588
-3.88058
-3.55539
-2.30225
-1.33145
-0.882628
1.41543
23.1378
-4.40576
-4.37436
-4.338
-4.29578
-4.24718
-4.19137
-4.12779
-4.04816
-3.96157
-3.90312
-3.88159
-3.92436
-4.04276
-3.68445
-3.03466
-2.40236
-2.35882
-1.87913
2.1825
-4.57344
-4.5444
-4.51069
-4.47119
-4.42532
-4.37093
-4.30453
-4.22799
-4.14409
-4.04993
-3.97183
-4.03725
-4.33016
-4.28337
-3.99137
-3.19373
-3.03952
-3.09376
-2.17626
-4.74493
-4.71914
-4.68928
-4.65417
-4.61467
-4.56821
-4.51406
-4.453
-4.37867
-4.2635
-4.1395
-4.38012
-4.88738
-4.66615
-4.12102
-3.91343
-3.57856
-3.69875
-2.47114
-4.91998
-4.89821
-4.87317
-4.8437
-4.8129
-4.77572
-4.73805
-4.70749
-4.66686
-4.59679
-4.56177
-5.53667
-5.73277
-4.63948
-4.30795
-4.32395
-4.01011
-4.07225
-2.52867
-5.09766
-5.08042
-5.06078
-5.03776
-5.01589
-4.98795
-4.9652
-4.96479
-4.95489
-4.9948
-5.11948
-6.49871
-5.13936
-4.80384
-4.50892
-4.55084
-4.3866
-4.48777
-4.0181
-5.2768
-5.26435
-5.25034
-5.23425
-5.22008
-5.2019
-5.19105
-5.21231
-5.2125
-5.35296
-5.52639
-6.47684
-3.39866
-5.87588
-5.29163
-4.9103
-4.84577
-5.11501
-3.34664
-5.45663
-5.44931
-5.44131
-5.43269
-5.42583
-5.41777
-5.41806
-5.45089
-5.44178
-5.57344
-5.70463
-5.74742
-5.01642
-6.40344
-5.54255
-5.52777
-5.5065
-6.11254
-15.306
-5.6392
-5.63758
-5.63642
-5.6363
-5.63909
-5.64456
-5.66483
-5.70698
-5.7281
-5.99349
-6.4945
-7.61495
-5.62591
-6.11713
-5.86693
-6.40289
-6.77389
-8.0865
-41.6695
)
;

boundaryField
{
    leftWall
    {
        type            calculated;
        value           nonuniform List<scalar> 
50
(
743.564
683.96
623.478
562.509
501.576
441.28
382.258
325.564
240.301
134.334
54.2093
1.14589
-0.228016
-0.366228
-0.515524
-0.66091
-0.804365
-0.947763
-1.09067
-1.23358
-1.37666
-1.51996
-1.66353
-1.80735
-1.95143
-2.09575
-2.24031
-2.38514
-2.53024
-2.67563
-2.82133
-2.96736
-3.11375
-3.2605
-3.40762
-3.55515
-3.70305
-3.85133
-3.99997
-4.14898
-4.29835
-4.44801
-4.59795
-4.74821
-4.89882
-5.04982
-5.20094
-5.35196
-5.50276
-5.65443
)
;
    }
    rightWall
    {
        type            calculated;
        value           nonuniform List<scalar> 
50
(
283.85
283.847
283.902
284.013
284.184
284.488
284.954
285.239
284.848
290.614
285.995
289.902
285.097
397.732
679.291
958.304
1016.16
857.756
628.378
418.761
280.362
207.316
157.637
90.6439
25.07
9.1643
3.11461
5.6427
5.94234
6.34914
3.06286
-1.61866
16.6611
15.4716
21.1886
28.2732
38.0708
58.6145
84.2168
83.8621
57.7935
23.1378
2.1825
-2.17626
-2.47114
-2.52867
-4.0181
-3.34664
-15.306
-41.6695
)
;
    }
    lowerWall
    {
        type            calculated;
        value           nonuniform List<scalar> 
62
(
772.993
772.522
778.017
787.042
794.186
797.508
797.743
797.751
799.881
805.102
813.557
825.188
839.961
857.749
878.449
901.854
927.024
951.535
969.429
980.172
959.927
955.42
997.663
968.285
902.497
843.108
794.722
752.99
703.53
636.204
548.372
289.306
299.377
315.213
307.133
283.15
283.103
283.078
283.077
283.113
283.567
281.378
272.385
283.18
282.89
281.464
280.204
279.88
279.928
279.898
279.824
279.777
279.763
279.778
279.844
279.974
280.196
280.574
281.241
282.268
283.349
283.88
)
;
    }
    atmosphere
    {
        type            calculated;
        value           nonuniform List<scalar> 
46
(
-5.7309
-5.7314
-5.73126
-5.73133
-5.73129
-5.73126
-5.73122
-5.73116
-5.73109
-5.73101
-5.73093
-5.73084
-5.73075
-5.73066
-5.73059
-5.73052
-5.73046
-5.73042
-5.73041
-5.73043
-5.73049
-5.73062
-5.73084
-5.7311
-5.73132
-5.7316
-5.73196
-5.73271
-5.73443
-5.7374
-5.7426
-5.75217
-5.76653
-5.80542
-5.84716
-5.90099
-6.33585
-7.07431
-10.3446
-6.10204
-6.33963
-5.75743
-6.52928
-6.36729
-6.36729
-468.094
)
;
    }
    defaultFaces
    {
        type            empty;
    }
}


// ************************************************************************* //
