/*--------------------------------*- C++ -*----------------------------------*\
| =========                 |                                                 |
| \\      /  F ield         | OpenFOAM: The Open Source CFD Toolbox           |
|  \\    /   O peration     | Version:  2206                                  |
|   \\  /    A nd           | Website:  www.openfoam.com                      |
|    \\/     M anipulation  |                                                 |
\*---------------------------------------------------------------------------*/
FoamFile
{
    version     2.0;
    format      ascii;
    arch        "LSB;label=32;scalar=64";
    class       surfaceScalarField;
    location    "0.525";
    object      phi;
}
// * * * * * * * * * * * * * * * * * * * * * * * * * * * * * * * * * * * * * //

dimensions      [0 3 -1 0 0 0 0];

oriented        oriented;

internalField   nonuniform List<scalar> 
4432
(
-4.70869e-06
4.70869e-06
-4.86338e-06
1.54698e-07
-3.67252e-06
-1.19086e-06
-3.21218e-06
-4.60343e-07
-3.80864e-06
5.96465e-07
-5.11721e-06
1.30858e-06
-6.64279e-06
1.52557e-06
-8.04802e-06
1.40524e-06
-9.19094e-06
1.14292e-06
-1.00598e-05
8.68839e-07
-1.06928e-05
6.32975e-07
-1.11377e-05
4.44983e-07
-1.14325e-05
2.94795e-07
-1.15828e-05
1.50301e-07
-1.1575e-05
-7.81887e-09
-1.13826e-05
-1.92433e-07
-1.09099e-05
-4.72657e-07
-9.94264e-06
-9.67285e-07
-7.99564e-06
-1.94699e-06
-4.51768e-06
-3.47796e-06
2.13034e-06
-6.64802e-06
9.62973e-06
-7.49939e-06
9.62973e-06
-4.98998e-06
9.69867e-06
-5.53763e-06
7.02344e-07
-4.68994e-06
-2.03854e-06
-4.38519e-06
-7.65091e-07
-5.02201e-06
1.23328e-06
-6.2608e-06
2.54737e-06
-7.65417e-06
2.91895e-06
-8.88946e-06
2.64053e-06
-9.8305e-06
2.08396e-06
-1.04418e-05
1.4801e-06
-1.07318e-05
9.22991e-07
-1.07066e-05
4.19816e-07
-1.03709e-05
-4.08923e-08
-9.72772e-06
-4.92878e-07
-8.79735e-06
-9.38185e-07
-7.58332e-06
-1.40646e-06
-6.11116e-06
-1.94482e-06
-4.42051e-06
-2.65793e-06
-2.61742e-06
-3.75008e-06
-8.02847e-07
-5.29254e-06
2.70511e-07
-7.72137e-06
1.0249e-06
-8.25378e-06
1.06546e-05
-5.33209e-06
1.50308e-05
-6.8281e-06
2.19836e-06
-6.68221e-06
-2.18443e-06
-6.65846e-06
-7.88842e-07
-7.31821e-06
1.89304e-06
-8.44481e-06
3.67397e-06
-9.68707e-06
4.16121e-06
-1.07936e-05
3.7471e-06
-1.16428e-05
2.93312e-06
-1.2205e-05
2.04229e-06
-1.24846e-05
1.20265e-06
-1.24857e-05
4.20865e-07
-1.22137e-05
-3.12872e-07
-1.16592e-05
-1.0474e-06
-1.08271e-05
-1.77028e-06
-9.75208e-06
-2.48147e-06
-8.48544e-06
-3.21146e-06
-7.15862e-06
-3.98475e-06
-6.07406e-06
-4.83464e-06
-5.57875e-06
-5.78785e-06
-6.29181e-06
-7.00831e-06
-7.68239e-06
-6.86319e-06
2.97224e-06
-5.97959e-06
2.10103e-05
-8.94289e-06
5.16165e-06
-9.70024e-06
-1.42707e-06
-9.84892e-06
-6.40163e-07
-1.04404e-05
2.48451e-06
-1.14195e-05
4.65308e-06
-1.2513e-05
5.25472e-06
-1.34946e-05
4.72871e-06
-1.4248e-05
3.68647e-06
-1.47296e-05
2.52389e-06
-1.49288e-05
1.40189e-06
-1.48614e-05
3.5346e-07
-1.45105e-05
-6.63807e-07
-1.39277e-05
-1.63015e-06
-1.31444e-05
-2.55364e-06
-1.21898e-05
-3.436e-06
-1.11235e-05
-4.27783e-06
-1.00166e-05
-5.09157e-06
-9.01359e-06
-5.83768e-06
-8.41004e-06
-6.39141e-06
-8.62015e-06
-6.7982e-06
-7.76529e-06
-7.71804e-06
-4.79306e-06
-6.6339e-06
2.76442e-05
-1.17866e-05
1.03143e-05
-1.35964e-05
3.82725e-07
-1.38032e-05
-4.33319e-07
-1.42035e-05
2.88477e-06
-1.51097e-05
5.55935e-06
-1.61183e-05
6.26325e-06
-1.70133e-05
5.62379e-06
-1.7666e-05
4.3391e-06
-1.80417e-05
2.89968e-06
-1.81594e-05
1.51958e-06
-1.80114e-05
2.05467e-07
-1.75951e-05
-1.0801e-06
-1.68346e-05
-2.39071e-06
-1.57328e-05
-3.65539e-06
-1.43646e-05
-4.80428e-06
-1.28371e-05
-5.80531e-06
-1.12327e-05
-6.69594e-06
-9.62072e-06
-7.44965e-06
-8.03861e-06
-7.97352e-06
-6.74218e-06
-8.09463e-06
-4.63682e-06
-9.8234e-06
-9.42988e-06
-3.31881e-06
3.09631e-05
-1.04921e-05
1.74876e-05
-1.46812e-05
4.57183e-06
-1.59349e-05
8.20414e-07
-1.68923e-05
3.84212e-06
-1.8438e-05
7.10505e-06
-2.01414e-05
7.96674e-06
-2.17417e-05
7.22404e-06
-2.29717e-05
5.56913e-06
-2.36437e-05
3.57166e-06
-2.37171e-05
1.593e-06
-2.32299e-05
-2.81706e-07
-2.22776e-05
-2.03242e-06
-2.08822e-05
-3.78614e-06
-1.9158e-05
-5.37957e-06
-1.72134e-05
-6.74885e-06
-1.50007e-05
-8.01805e-06
-1.26037e-05
-9.09291e-06
-1.01253e-05
-9.92813e-06
-7.53817e-06
-1.05606e-05
-5.05741e-06
-1.05754e-05
-2.611e-06
-1.22698e-05
-1.20409e-05
4.37435e-06
2.65887e-05
4.42557e-07
2.14194e-05
-6.44785e-06
1.14622e-05
-1.31672e-05
7.53973e-06
-1.76739e-05
8.34882e-06
-2.06935e-05
1.01247e-05
-2.26822e-05
9.9555e-06
-2.42262e-05
8.76799e-06
-2.52792e-05
6.62219e-06
-2.5894e-05
4.18638e-06
-2.65831e-05
2.28217e-06
-2.76253e-05
7.60436e-07
-2.82062e-05
-1.45146e-06
-2.72015e-05
-4.79085e-06
-2.48922e-05
-7.68885e-06
-2.20684e-05
-9.57271e-06
-1.86176e-05
-1.14688e-05
-1.46591e-05
-1.30515e-05
-1.05889e-05
-1.39983e-05
-6.43082e-06
-1.47187e-05
-2.52443e-06
-1.44818e-05
6.50393e-07
-1.54446e-05
-1.13905e-05
1.46343e-05
1.19544e-05
2.11095e-05
1.49441e-05
1.06186e-05
2.19531e-05
-4.69121e-06
2.28496e-05
-1.50573e-05
1.87149e-05
-2.04661e-05
1.55335e-05
-2.37593e-05
1.32487e-05
-2.6663e-05
1.16717e-05
-2.94711e-05
9.43023e-06
-3.19087e-05
6.62407e-06
-3.38978e-05
4.27128e-06
-3.51198e-05
1.98236e-06
-3.50554e-05
-1.51579e-06
-3.25851e-05
-7.26118e-06
-2.9516e-05
-1.0758e-05
-2.66338e-05
-1.24548e-05
-2.28058e-05
-1.52969e-05
-1.83906e-05
-1.74666e-05
-1.42186e-05
-1.81702e-05
-1.04053e-05
-1.8532e-05
-6.04932e-06
-1.88378e-05
-2.7812e-06
-1.87128e-05
-1.41717e-05
-0.000417533
0.000417533
-0.000605524
0.000187991
-0.000619205
1.36814e-05
-0.000563783
-5.54223e-05
-0.000311154
-0.000252629
-2.58522e-05
-0.000285302
0.00023112
-0.000256972
0.000510078
-0.000278958
0.0007928
-0.000282722
0.00103665
-0.000243852
0.00119398
-0.000157332
0.00118617
7.819e-06
0.00103402
0.000152142
0.000805377
0.000228647
0.000565007
0.000240369
0.000364392
0.000200614
0.000214692
0.000149702
9.98925e-05
0.0001148
9.98921e-05
-0.000147885
0.000565418
-0.000232434
0.000272541
-7.72433e-05
-0.00014151
4.42475e-06
-0.000137091
6.42401e-05
-0.000312444
0.000128897
-0.000349958
0.000212469
-0.000340544
0.000302448
-0.000368938
0.000423794
-0.000404069
0.000554816
-0.000374874
0.000835593
-0.000438109
0.00114437
-0.000300954
0.00115455
0.000141954
0.000998167
0.000385035
0.000767463
0.000471073
0.000524322
0.000443756
0.00031964
0.000354384
0.00015087
0.00028357
0.000250761
0.000142482
0.000422936
0.000176541
0.000238481
0.000138928
-0.000103897
0.000166006
-0.000164169
0.000169483
-0.00031592
0.000182761
-0.000363236
0.00021584
-0.000373623
0.000246491
-0.000399589
0.000268021
-0.000425598
0.000273766
-0.000380619
0.000274816
-0.000439159
0.000416815
-0.000442954
0.000578168
-1.94001e-05
0.000569103
0.000394101
0.00047805
0.000562126
0.000365911
0.000555895
0.000244373
0.000475922
0.000121998
0.000405945
0.000372759
0.000145373
0.000277564
0.000228578
0.000155277
0.000169709
-4.50288e-05
0.000208607
-0.000203066
0.000208408
-0.000315722
0.000205133
-0.000359962
0.000208925
-0.000377416
0.000204772
-0.000395436
0.000192809
-0.000413634
0.000222772
-0.000410583
0.000184335
-0.000400722
7.80924e-05
-0.00033671
7.82172e-05
-1.95247e-05
0.000130637
0.000341681
0.000169265
0.000523498
0.000173533
0.000551627
0.000138861
0.000510594
7.5559e-05
0.000469247
0.000448318
2.97878e-05
0.000247776
8.78916e-05
9.71727e-05
0.000184148
-0.000141285
0.000223778
-0.000242697
0.000223527
-0.00031547
0.000207811
-0.000344246
0.000188564
-0.000358169
0.000169475
-0.000376347
0.000157422
-0.000401581
0.000160141
-0.000413302
0.000144226
-0.000384807
2.79205e-05
-0.000220405
-3.052e-05
3.89155e-05
-3.89316e-06
0.000315056
4.68102e-05
0.000472794
7.93718e-05
0.000519065
7.57467e-05
0.000514219
4.41764e-05
0.000500817
0.000492495
1.15369e-05
0.000236239
0.00017628
-6.75703e-05
0.000217208
-0.000182213
0.000237079
-0.000262567
0.000236052
-0.000314444
0.00020666
-0.000314854
0.000159627
-0.000311136
0.00013546
-0.000352179
0.000128479
-0.0003946
0.000132471
-0.000417294
0.000142887
-0.000395223
0.000117957
-0.000195474
6.92797e-05
8.75924e-05
5.25569e-05
0.000331778
5.993e-05
0.000465421
6.61087e-05
0.000512886
5.61499e-05
0.000524177
3.15774e-05
0.000525389
0.000524072
0.000168484
6.77549e-05
0.00020014
-9.92266e-05
0.000223238
-0.000205311
0.000239994
-0.000279323
0.000225671
-0.000300121
0.000197067
-0.00028625
0.00016774
-0.000281809
0.000162472
-0.000346911
0.000165141
-0.000397269
0.000151992
-0.000404146
0.000161013
-0.000404244
0.000210556
-0.000245016
0.000206545
9.16028e-05
0.000154485
0.000383838
0.000110318
0.000509588
8.28459e-05
0.000540358
5.74606e-05
0.000549562
2.95157e-05
0.000553334
0.000553588
0.000141964
-7.42095e-05
0.000193789
-0.000151052
0.000235422
-0.000246944
0.000234615
-0.000278516
0.000227051
-0.000292557
0.000206357
-0.000265555
0.000193664
-0.000269116
0.000207749
-0.000360996
0.000186675
-0.000376196
0.000166086
-0.000383556
0.000147963
-0.000386121
0.000223265
-0.000320318
0.000276447
3.84206e-05
0.000224867
0.000435418
0.000149858
0.000584597
9.89561e-05
0.00059126
6.17351e-05
0.000586784
2.99397e-05
0.00058513
0.000583527
-5.23503e-06
1.71895e-05
-1.80967e-06
1.15188e-05
-1.85627e-06
2.19997e-05
-8.44517e-06
2.94385e-05
-1.97882e-05
3.00579e-05
-3.09427e-05
2.6688e-05
-3.83221e-05
2.06282e-05
-3.9513e-05
1.28625e-05
-3.72547e-05
7.17199e-06
-3.42283e-05
3.59759e-06
-3.07069e-05
7.49896e-07
-2.83975e-05
-3.26977e-07
-2.70111e-05
-2.90226e-06
-2.61642e-05
-8.10805e-06
-2.41801e-05
-1.27421e-05
-2.15853e-05
-1.50496e-05
-1.87439e-05
-1.81383e-05
-1.50589e-05
-2.11517e-05
-1.10735e-05
-2.21556e-05
-7.32654e-06
-2.2279e-05
-3.42779e-06
-2.27365e-05
9.48607e-07
-2.30892e-05
-2.06043e-05
7.38126e-06
-1.04943e-05
2.76838e-05
-1.83372e-05
1.93619e-05
-2.74161e-05
3.10787e-05
-5.08717e-05
5.28941e-05
-8.05671e-05
5.97533e-05
-0.000101813
4.79338e-05
-0.000112529
3.13446e-05
-0.000109755
1.00879e-05
-9.47787e-05
-7.80402e-06
-8.29124e-05
-8.26866e-06
-7.27181e-05
-9.44443e-06
-6.06576e-05
-1.23875e-05
-4.70176e-05
-1.65423e-05
-3.55704e-05
-1.95553e-05
-2.57046e-05
-2.26079e-05
-1.76174e-05
-2.31368e-05
-1.20958e-05
-2.366e-05
-6.02294e-06
-2.72245e-05
5.4496e-08
-2.82331e-05
5.00235e-06
-2.72268e-05
8.76337e-06
-2.64976e-05
1.13876e-05
-2.57133e-05
-2.53984e-05
1.61816e-05
-5.46302e-06
3.31467e-05
-7.13337e-06
2.10322e-05
-2.16511e-06
2.61104e-05
7.80806e-06
4.2921e-05
1.54898e-05
5.20717e-05
1.78887e-05
4.55348e-05
1.93171e-05
2.99162e-05
1.93786e-05
1.00264e-05
2.19095e-05
-1.03348e-05
3.04874e-05
-1.68466e-05
4.08806e-05
-1.98376e-05
5.03151e-05
-2.1822e-05
5.74249e-05
-2.36522e-05
6.29925e-05
-2.51231e-05
6.62824e-05
-2.58979e-05
6.786e-05
-2.47146e-05
6.81011e-05
-2.39012e-05
7.12693e-05
-3.03927e-05
8.24068e-05
-3.93705e-05
9.47934e-05
-3.96134e-05
0.000101991
-3.36952e-05
0.000100385
-2.41078e-05
-1.90743e-05
9.40614e-05
-2.89232e-06
3.60391e-05
6.05899e-07
1.7534e-05
1.08301e-05
1.58863e-05
3.18815e-05
2.18697e-05
5.62195e-05
2.77337e-05
7.51027e-05
2.66516e-05
8.80087e-05
1.70103e-05
9.54027e-05
2.63238e-06
9.57798e-05
-1.07118e-05
9.63845e-05
-1.74515e-05
9.71991e-05
-2.06524e-05
9.86994e-05
-2.33225e-05
0.000100796
-2.57487e-05
0.000103778
-2.81055e-05
0.000108182
-3.03027e-05
0.00011434
-3.08726e-05
0.000120094
-2.96544e-05
0.000121137
-3.14357e-05
0.000119115
-3.73482e-05
0.00011972
-4.02181e-05
0.000124471
-3.84459e-05
0.000135679
-3.53156e-05
-3.49466e-05
0.000151551
-2.05939e-06
3.80986e-05
2.55114e-06
1.29236e-05
1.37086e-05
4.72895e-06
3.12325e-05
4.34581e-06
5.24385e-05
6.52767e-06
7.20051e-05
7.08512e-06
8.61232e-05
2.89217e-06
9.3425e-05
-4.66937e-06
9.44471e-05
-1.17339e-05
9.42055e-05
-1.72099e-05
9.46008e-05
-2.10478e-05
9.56653e-05
-2.43871e-05
9.72533e-05
-2.73368e-05
9.90903e-05
-2.99426e-05
0.00010119
-3.2403e-05
0.000104624
-3.43062e-05
0.000110599
-3.56294e-05
0.000117126
-3.79629e-05
0.000121377
-4.15985e-05
0.00012508
-4.39218e-05
0.000130683
-4.40488e-05
0.000139329
-4.39613e-05
-4.56755e-05
0.000150058
-1.2615e-06
3.93601e-05
3.00666e-06
8.65545e-06
1.32436e-05
-5.50787e-06
2.78718e-05
-1.02823e-05
4.43593e-05
-9.95978e-06
6.00714e-05
-8.62694e-06
7.20557e-05
-9.09203e-06
7.91545e-05
-1.17681e-05
8.29504e-05
-1.55299e-05
8.52212e-05
-1.94808e-05
8.73194e-05
-2.31461e-05
8.95607e-05
-2.66286e-05
9.21391e-05
-2.99152e-05
9.51353e-05
-3.29387e-05
9.84509e-05
-3.57186e-05
0.000102289
-3.81436e-05
0.000106802
-4.01431e-05
0.000111119
-4.22789e-05
0.000114523
-4.50033e-05
0.000118141
-4.75399e-05
0.000123339
-4.92466e-05
0.000130262
-5.08839e-05
-5.34879e-05
0.000138074
-4.54317e-07
3.98145e-05
3.35569e-06
4.84547e-06
1.26497e-05
-1.48018e-05
2.52894e-05
-2.2922e-05
3.89673e-05
-2.36376e-05
5.17389e-05
-2.13985e-05
6.20998e-05
-1.94528e-05
6.95556e-05
-1.92239e-05
7.47086e-05
-2.0683e-05
7.84702e-05
-2.32424e-05
8.16957e-05
-2.63717e-05
8.48246e-05
-2.97574e-05
8.8062e-05
-3.31527e-05
9.14988e-05
-3.63755e-05
9.51429e-05
-3.93626e-05
9.90738e-05
-4.20744e-05
0.000103456
-4.45249e-05
0.000108122
-4.69454e-05
0.000112647
-4.95279e-05
0.000117136
-5.20292e-05
0.000122109
-5.42197e-05
0.000127703
-5.64779e-05
-5.93769e-05
0.000133592
3.36634e-07
3.94778e-05
3.72607e-06
1.45595e-06
1.21065e-05
-2.31824e-05
2.32331e-05
-3.40486e-05
3.49175e-05
-3.5322e-05
4.57123e-05
-3.21932e-05
5.48274e-05
-2.85678e-05
6.20549e-05
-2.64514e-05
6.76967e-05
-2.63248e-05
7.23012e-05
-2.7847e-05
7.63822e-05
-3.04527e-05
8.026e-05
-3.36352e-05
8.41114e-05
-3.70041e-05
8.80304e-05
-4.02944e-05
9.20474e-05
-4.33795e-05
9.61937e-05
-4.62205e-05
0.000100507
-4.88382e-05
0.000104908
-5.1346e-05
0.000109255
-5.38748e-05
0.000113639
-5.64132e-05
0.000118327
-5.89076e-05
0.000123365
-6.15167e-05
-6.45162e-05
0.000128505
1.15129e-06
3.83265e-05
4.24643e-06
-1.63932e-06
1.19234e-05
-3.08594e-05
2.18253e-05
-4.39504e-05
3.19184e-05
-4.5415e-05
4.11236e-05
-4.13983e-05
4.90761e-05
-3.65203e-05
5.58059e-05
-3.31813e-05
6.1552e-05
-3.20709e-05
6.66318e-05
-3.29269e-05
7.13234e-05
-3.51444e-05
7.5806e-05
-3.81179e-05
8.01791e-05
-4.13773e-05
8.44995e-05
-4.46148e-05
8.88001e-05
-4.768e-05
9.31124e-05
-5.05327e-05
9.74726e-05
-5.31984e-05
0.000101879
-5.57524e-05
0.000106285
-5.82806e-05
0.000110691
-6.08192e-05
0.000115164
-6.33806e-05
0.000119702
-6.60548e-05
-6.89843e-05
0.00012417
1.60465e-06
3.67217e-05
4.90616e-06
-4.94087e-06
1.20946e-05
-3.80479e-05
2.0971e-05
-5.28268e-05
2.96994e-05
-5.41434e-05
3.75367e-05
-4.92355e-05
4.44481e-05
-4.34316e-05
5.06429e-05
-3.93761e-05
5.63406e-05
-3.77686e-05
6.17049e-05
-3.82913e-05
6.68345e-05
-4.02741e-05
7.17752e-05
-4.30587e-05
7.65478e-05
-4.615e-05
8.11738e-05
-4.92408e-05
8.56813e-05
-5.21874e-05
9.01051e-05
-5.49564e-05
9.44805e-05
-5.75737e-05
9.88249e-05
-6.00968e-05
0.000103134
-6.25897e-05
0.000107413
-6.50985e-05
0.000111686
-6.76536e-05
0.000115939
-7.03071e-05
-7.31262e-05
0.000120081
1.89095e-06
3.48307e-05
5.64179e-06
-8.69171e-06
1.25522e-05
-4.49582e-05
2.05488e-05
-6.08233e-05
2.80622e-05
-6.16566e-05
3.47023e-05
-5.58754e-05
4.07146e-05
-4.94439e-05
4.64284e-05
-4.50899e-05
5.20278e-05
-4.3368e-05
5.75501e-05
-4.38136e-05
6.29535e-05
-4.56776e-05
6.81802e-05
-4.82856e-05
7.3194e-05
-5.11638e-05
7.7994e-05
-5.40408e-05
8.26081e-05
-5.68014e-05
8.70792e-05
-5.94274e-05
9.14521e-05
-6.19465e-05
9.57586e-05
-6.4403e-05
0.000100011
-6.68415e-05
0.000104209
-6.9297e-05
0.00010835
-7.17947e-05
0.000112408
-7.43645e-05
-7.70362e-05
0.000116318
2.1853e-06
3.26454e-05
6.47415e-06
-1.29805e-05
1.32347e-05
-5.17187e-05
2.04374e-05
-6.80259e-05
2.68475e-05
-6.80667e-05
3.24466e-05
-6.14744e-05
3.77141e-05
-5.47114e-05
4.30358e-05
-5.04117e-05
4.8529e-05
-4.88613e-05
5.41156e-05
-4.94003e-05
5.96488e-05
-5.12108e-05
6.50027e-05
-5.36397e-05
7.01112e-05
-5.62723e-05
7.49685e-05
-5.8898e-05
7.96085e-05
-6.14412e-05
8.40807e-05
-6.38996e-05
8.8433e-05
-6.62988e-05
9.26993e-05
-6.86691e-05
9.68954e-05
-7.10376e-05
0.000101024
-7.34252e-05
0.000105076
-7.58468e-05
0.000109027
-7.83163e-05
-8.08408e-05
0.000112832
2.52407e-06
3.01214e-05
7.38492e-06
-1.78412e-05
1.40474e-05
-5.83811e-05
2.05047e-05
-7.4483e-05
2.59108e-05
-7.34728e-05
3.06239e-05
-6.61875e-05
3.53038e-05
-5.93912e-05
4.03289e-05
-5.54367e-05
4.57181e-05
-5.42504e-05
5.1289e-05
-5.49711e-05
5.68247e-05
-5.67466e-05
6.21697e-05
-5.89848e-05
6.72552e-05
-6.13578e-05
7.20827e-05
-6.37253e-05
7.66928e-05
-6.60512e-05
8.11374e-05
-6.83441e-05
8.5462e-05
-7.06234e-05
8.96977e-05
-7.29049e-05
9.38598e-05
-7.51997e-05
9.79502e-05
-7.75157e-05
0.000101961
-7.98571e-05
0.00010587
-8.22259e-05
-8.46141e-05
0.000109644
2.85719e-06
2.72643e-05
8.30389e-06
-2.32878e-05
1.48738e-05
-6.49509e-05
2.06116e-05
-8.02207e-05
2.51118e-05
-7.7973e-05
2.90985e-05
-7.01742e-05
3.33457e-05
-6.36383e-05
3.81615e-05
-6.02526e-05
4.34464e-05
-5.95352e-05
4.89323e-05
-6.0457e-05
5.43694e-05
-6.21837e-05
5.9605e-05
-6.42203e-05
6.45866e-05
-6.63391e-05
6.93285e-05
-6.8467e-05
7.38754e-05
-7.05979e-05
7.82755e-05
-7.27441e-05
8.25672e-05
-7.49151e-05
8.67756e-05
-7.71133e-05
9.09134e-05
-7.93376e-05
9.4984e-05
-8.15864e-05
9.89828e-05
-8.38559e-05
0.000102895
-8.61377e-05
-8.84133e-05
0.000106694
3.14737e-06
2.4117e-05
9.15561e-06
-2.92959e-05
1.56008e-05
-7.1396e-05
2.06316e-05
-8.52514e-05
2.43298e-05
-8.16712e-05
2.7754e-05
-7.35983e-05
3.17138e-05
-6.75982e-05
3.63918e-05
-6.49305e-05
4.15633e-05
-6.47066e-05
4.69036e-05
-6.57973e-05
5.21647e-05
-6.74448e-05
5.72218e-05
-6.92773e-05
6.2048e-05
-7.11653e-05
6.66698e-05
-7.30887e-05
7.11305e-05
-7.50587e-05
7.54701e-05
-7.70838e-05
7.97179e-05
-7.91629e-05
8.3893e-05
-8.12885e-05
8.80069e-05
-8.34516e-05
9.20653e-05
-8.5645e-05
9.60688e-05
-8.78593e-05
0.000100007
-9.00758e-05
-9.2269e-05
0.000103863
3.41939e-06
2.06977e-05
9.90039e-06
-3.57767e-05
1.61468e-05
-7.76423e-05
2.04792e-05
-8.95838e-05
2.34928e-05
-8.46848e-05
2.65186e-05
-7.66242e-05
3.03149e-05
-7.13944e-05
3.48972e-05
-6.95127e-05
3.99294e-05
-6.97388e-05
4.5066e-05
-7.09338e-05
5.00919e-05
-7.24706e-05
5.49243e-05
-7.41098e-05
5.95633e-05
-7.58041e-05
6.40416e-05
-7.75671e-05
6.83964e-05
-7.94136e-05
7.26572e-05
-8.13447e-05
7.6845e-05
-8.33508e-05
8.09747e-05
-8.54181e-05
8.50577e-05
-8.75346e-05
8.91035e-05
-8.96909e-05
9.31167e-05
-9.18726e-05
9.70912e-05
-9.40504e-05
-9.6198e-05
0.00010102
3.69914e-06
1.69986e-05
1.05331e-05
-4.26105e-05
1.64785e-05
-8.35875e-05
2.01321e-05
-9.32373e-05
2.25969e-05
-8.71497e-05
2.53794e-05
-7.94068e-05
2.90985e-05
-7.51135e-05
3.35875e-05
-7.40018e-05
3.84333e-05
-7.45846e-05
4.33097e-05
-7.58101e-05
4.80566e-05
-7.72176e-05
5.26371e-05
-7.86903e-05
5.70711e-05
-8.0238e-05
6.13911e-05
-8.18872e-05
6.56245e-05
-8.36472e-05
6.97909e-05
-8.55113e-05
7.39052e-05
-8.74651e-05
7.79801e-05
-8.94928e-05
8.20279e-05
-9.15823e-05
8.60611e-05
-9.37242e-05
9.00869e-05
-9.58985e-05
9.41032e-05
-9.80668e-05
-0.000100211
9.81162e-05
4.01829e-06
1.29804e-05
1.10756e-05
-4.96677e-05
1.66164e-05
-8.91283e-05
1.9633e-05
-9.62539e-05
2.16968e-05
-8.92135e-05
2.43647e-05
-8.20749e-05
2.80445e-05
-7.87934e-05
3.24043e-05
-7.83617e-05
3.70047e-05
-7.9185e-05
4.1575e-05
-8.03805e-05
4.60201e-05
-8.16627e-05
5.03408e-05
-8.3011e-05
5.45664e-05
-8.44636e-05
5.87231e-05
-8.60439e-05
6.28281e-05
-8.77521e-05
6.68931e-05
-8.95763e-05
7.09293e-05
-9.15012e-05
7.49484e-05
-9.35117e-05
7.89632e-05
-9.55971e-05
8.29873e-05
-9.77484e-05
8.70284e-05
-9.99398e-05
9.10903e-05
-0.000102129
-0.000104313
9.51918e-05
4.40785e-06
8.57268e-06
1.15677e-05
-5.68274e-05
1.66191e-05
-9.41796e-05
1.90614e-05
-9.86962e-05
2.08647e-05
-9.1017e-05
2.35041e-05
-8.47144e-05
2.71362e-05
-8.24257e-05
3.13103e-05
-8.25358e-05
3.5615e-05
-8.34898e-05
3.9858e-05
-8.46235e-05
4.40035e-05
-8.58084e-05
4.80754e-05
-8.7083e-05
5.21018e-05
-8.849e-05
5.60993e-05
-9.00414e-05
6.00768e-05
-9.17295e-05
6.40412e-05
-9.35407e-05
6.80014e-05
-9.54615e-05
7.1968e-05
-9.74781e-05
7.59531e-05
-9.95824e-05
7.9969e-05
-0.000101764
8.40237e-05
-0.000103995
8.81275e-05
-0.000106233
-0.000108488
9.23026e-05
4.88449e-06
3.68829e-06
1.20521e-05
-6.39949e-05
1.65524e-05
-9.86799e-05
1.84914e-05
-0.000100635
2.01467e-05
-9.26724e-05
2.27953e-05
-8.73631e-05
2.63414e-05
-8.59718e-05
3.02772e-05
-8.64716e-05
3.42623e-05
-8.74748e-05
3.8186e-05
-8.85473e-05
4.2055e-05
-8.96775e-05
4.59002e-05
-9.09283e-05
4.97415e-05
-9.23314e-05
5.35868e-05
-9.38866e-05
5.74395e-05
-9.55821e-05
6.13042e-05
-9.74053e-05
6.51885e-05
-9.93459e-05
6.91012e-05
-0.000101391
7.30528e-05
-0.000103534
7.70517e-05
-0.000105763
8.11075e-05
-0.00010805
8.52328e-05
-0.000110358
-0.000112693
8.94384e-05
5.44896e-06
-1.76062e-06
1.25501e-05
-7.10962e-05
1.64557e-05
-0.000102586
1.79589e-05
-0.000102139
1.9542e-05
-9.42556e-05
2.21981e-05
-9.00191e-05
2.56111e-05
-8.93848e-05
2.92771e-05
-9.01375e-05
3.29476e-05
-9.11452e-05
3.65804e-05
-9.21802e-05
4.02038e-05
-9.33009e-05
4.38437e-05
-9.45683e-05
4.75103e-05
-9.5998e-05
5.12056e-05
-9.75819e-05
5.4931e-05
-9.93075e-05
5.86904e-05
-0.000101165
6.24908e-05
-0.000103146
6.6339e-05
-0.000105239
7.02431e-05
-0.000107438
7.42055e-05
-0.000109725
7.82388e-05
-0.000112083
8.23484e-05
-0.000114467
-0.00011687
8.65255e-05
6.08045e-06
-7.84109e-06
1.30464e-05
-7.80623e-05
1.63239e-05
-0.000105863
1.74543e-05
-0.000103269
1.9011e-05
-9.58122e-05
2.16502e-05
-9.26582e-05
2.48903e-05
-9.26248e-05
2.82782e-05
-9.35255e-05
3.1658e-05
-9.45251e-05
3.50335e-05
-9.55559e-05
3.84369e-05
-9.67044e-05
4.18843e-05
-9.80157e-05
4.53783e-05
-9.94922e-05
4.89188e-05
-0.000101122
5.25078e-05
-0.000102896
5.61493e-05
-0.000104806
5.98507e-05
-0.000106848
6.36161e-05
-0.000109004
6.74519e-05
-0.000111274
7.13543e-05
-0.000113628
7.53389e-05
-0.000116068
7.93957e-05
-0.000118524
-0.000120981
8.35061e-05
6.73744e-06
-1.45786e-05
1.34853e-05
-8.48105e-05
1.61124e-05
-0.00010849
1.69383e-05
-0.000104095
1.8498e-05
-9.73717e-05
2.10892e-05
-9.52492e-05
2.41295e-05
-9.56651e-05
2.72478e-05
-9.66439e-05
3.03663e-05
-9.76437e-05
3.35119e-05
-9.87017e-05
3.67104e-05
-9.9903e-05
3.99685e-05
-0.000101274
4.32857e-05
-0.000102809
4.66621e-05
-0.000104499
5.01019e-05
-0.000106336
5.36101e-05
-0.000108314
5.7194e-05
-0.000110431
6.08561e-05
-0.000112666
6.46026e-05
-0.00011502
6.84255e-05
-0.000117451
7.23464e-05
-0.000119989
7.63403e-05
-0.000122518
-0.000125044
8.04039e-05
7.36267e-06
-2.19414e-05
1.37837e-05
-9.12317e-05
1.57597e-05
-0.000110466
1.63661e-05
-0.000104701
1.7952e-05
-9.89574e-05
2.04651e-05
-9.77623e-05
2.3292e-05
-9.8492e-05
2.61578e-05
-9.95096e-05
2.9041e-05
-0.000100527
3.19748e-05
-0.000101636
3.49748e-05
-0.000102903
3.8042e-05
-0.000104341
4.11757e-05
-0.000105943
4.43786e-05
-0.000107702
4.76568e-05
-0.000109614
5.10165e-05
-0.000111674
5.44646e-05
-0.000113879
5.80042e-05
-0.000116205
6.16444e-05
-0.000118661
6.53803e-05
-0.000121187
6.92408e-05
-0.000123849
7.32014e-05
-0.000126478
-0.000129137
7.7294e-05
7.89037e-06
-2.9832e-05
1.3855e-05
-9.71966e-05
1.52157e-05
-0.000111827
1.57059e-05
-0.000105191
1.73351e-05
-0.000100587
1.97451e-05
-0.000100172
2.2356e-05
-0.000101103
2.49892e-05
-0.000102143
2.76579e-05
-0.000103196
3.03907e-05
-0.000104368
3.31944e-05
-0.000105707
3.60682e-05
-0.000107215
3.90134e-05
-0.000108888
4.20352e-05
-0.000110724
4.51408e-05
-0.00011272
4.83375e-05
-0.000114871
5.16324e-05
-0.000117174
5.50339e-05
-0.000119607
5.85558e-05
-0.000122183
6.2209e-05
-0.00012484
6.60237e-05
-0.000127664
7.00051e-05
-0.00013046
-0.000133335
7.42032e-05
8.26214e-06
-3.80943e-05
1.36379e-05
-0.000102573
1.44627e-05
-0.000112652
1.49467e-05
-0.000105675
1.6625e-05
-0.000102265
1.89119e-05
-0.000102459
2.13132e-05
-0.000103504
2.37343e-05
-0.000104564
2.62046e-05
-0.000105666
2.87436e-05
-0.000106907
3.13531e-05
-0.000108316
3.40328e-05
-0.000109895
3.67862e-05
-0.000111642
3.96202e-05
-0.000113558
4.25421e-05
-0.000115642
4.55612e-05
-0.00011789
4.86862e-05
-0.000120299
5.19359e-05
-0.000122857
5.53288e-05
-0.000125576
5.89035e-05
-0.000128414
6.26782e-05
-0.000131438
6.67228e-05
-0.000134504
-0.000137656
7.10445e-05
8.4393e-06
-4.65338e-05
1.31137e-05
-0.000107248
1.35218e-05
-0.00011306
1.40963e-05
-0.00010625
1.58135e-05
-0.000103982
1.79631e-05
-0.000104609
2.01677e-05
-0.000105709
2.23965e-05
-0.000106792
2.46812e-05
-0.000107951
2.70328e-05
-0.000109259
2.94511e-05
-0.000110734
3.19371e-05
-0.000112381
3.44957e-05
-0.000114201
3.71341e-05
-0.000116197
3.986e-05
-0.000118368
4.26853e-05
-0.000120715
4.56224e-05
-0.000123236
4.87026e-05
-0.000125937
5.19477e-05
-0.000128821
5.54279e-05
-0.000131894
5.91384e-05
-0.000135149
6.32341e-05
-0.000138599
-0.000142043
6.76209e-05
8.40849e-06
-5.49426e-05
1.23092e-05
-0.000111149
1.24436e-05
-0.000113195
1.31734e-05
-0.00010698
1.49049e-05
-0.000105713
1.69097e-05
-0.000106613
1.89343e-05
-0.000107733
2.0988e-05
-0.000108846
2.30975e-05
-0.000110061
2.52676e-05
-0.000111429
2.74978e-05
-0.000112965
2.979e-05
-0.000114673
3.21492e-05
-0.00011656
3.45822e-05
-0.00011863
3.70974e-05
-0.000120883
3.97095e-05
-0.000123327
4.2436e-05
-0.000125962
4.53174e-05
-0.000128819
4.83789e-05
-0.000131882
5.17127e-05
-0.000135228
5.52984e-05
-0.000138734
5.93543e-05
-0.000142655
-0.00014639
6.37012e-05
8.18106e-06
-6.31239e-05
1.1286e-05
-0.000114254
1.12928e-05
-0.000113202
1.22013e-05
-0.000107888
1.3914e-05
-0.000107426
1.57727e-05
-0.000108472
1.76339e-05
-0.000109594
1.95263e-05
-0.000110739
2.14684e-05
-0.000112003
2.34617e-05
-0.000113422
2.55055e-05
-0.000115008
2.76018e-05
-0.000116769
2.97548e-05
-0.000118713
3.19704e-05
-0.000120845
3.42578e-05
-0.00012317
3.6633e-05
-0.000125702
3.91187e-05
-0.000128448
4.17566e-05
-0.000131457
4.45795e-05
-0.000134705
4.76793e-05
-0.000138328
5.10535e-05
-0.000142108
5.4918e-05
-0.000146519
-0.000150607
5.9135e-05
7.7853e-06
-7.09094e-05
1.01238e-05
-0.000116593
1.01302e-05
-0.000113208
1.12015e-05
-0.000108959
1.28613e-05
-0.000109086
1.45772e-05
-0.000110188
1.62891e-05
-0.000111306
1.80294e-05
-0.000112479
1.98093e-05
-0.000113783
2.16283e-05
-0.000115241
2.34856e-05
-0.000116865
2.53823e-05
-0.000118666
2.73209e-05
-0.000120652
2.9306e-05
-0.00012283
3.13469e-05
-0.000125211
3.34582e-05
-0.000127814
3.56656e-05
-0.000130656
3.80035e-05
-0.000133795
4.05167e-05
-0.000137219
4.32731e-05
-0.000141085
4.63301e-05
-0.000145165
4.98258e-05
-0.000150015
-0.000154626
5.38451e-05
7.25637e-06
-7.81659e-05
8.9027e-06
-0.000118239
9.0019e-06
-0.000113307
1.01918e-05
-0.000110149
1.17694e-05
-0.000110664
1.33476e-05
-0.000111766
1.49195e-05
-0.000112878
1.65129e-05
-0.000114073
1.81333e-05
-0.000115403
1.97791e-05
-0.000116887
2.14489e-05
-0.000118535
2.3142e-05
-0.000120359
2.48588e-05
-0.000122369
2.66018e-05
-0.000124573
2.83782e-05
-0.000126988
3.01991e-05
-0.000129635
3.2088e-05
-0.000132545
3.40671e-05
-0.000135774
3.61895e-05
-0.000139341
3.8487e-05
-0.000143382
4.10918e-05
-0.00014777
4.40295e-05
-0.000152953
-0.000158302
4.77051e-05
6.63682e-06
-8.48029e-05
7.69336e-06
-0.000119296
7.93612e-06
-0.00011355
9.18605e-06
-0.000111399
1.06592e-05
-0.000112138
1.2104e-05
-0.000113211
1.35407e-05
-0.000114315
1.49892e-05
-0.000115521
1.64514e-05
-0.000116865
1.79249e-05
-0.00011836
1.9407e-05
-0.000120017
2.08947e-05
-0.000121847
2.23857e-05
-0.00012386
2.38795e-05
-0.000126067
2.53786e-05
-0.000128487
2.68887e-05
-0.000131145
2.84241e-05
-0.00013408
2.99942e-05
-0.000137344
3.1644e-05
-0.000140991
3.33758e-05
-0.000145114
3.53553e-05
-0.000149749
3.75316e-05
-0.000155129
-0.000161289
4.05192e-05
5.96756e-06
-9.07706e-05
6.54811e-06
-0.000119876
6.94505e-06
-0.000113947
8.19547e-06
-0.00011265
9.54867e-06
-0.000113491
1.08622e-05
-0.000114525
1.21647e-05
-0.000115618
1.34687e-05
-0.000116825
1.47739e-05
-0.00011817
1.60769e-05
-0.000119663
1.73733e-05
-0.000121313
1.86579e-05
-0.000123131
1.99249e-05
-0.000125127
2.11696e-05
-0.000127312
2.23885e-05
-0.000129706
2.35792e-05
-0.000132336
2.47414e-05
-0.000135242
2.58704e-05
-0.000138474
2.69822e-05
-0.000142103
2.80636e-05
-0.000146196
2.9232e-05
-0.000150918
3.04365e-05
-0.000156333
-0.000163053
3.22007e-05
5.28476e-06
-9.60555e-05
5.50361e-06
-0.000120095
6.03028e-06
-0.000114474
7.22879e-06
-0.000113848
8.45199e-06
-0.000114714
9.63382e-06
-0.000115707
1.08012e-05
-0.000116785
1.19608e-05
-0.000117985
1.31107e-05
-0.00011932
1.42467e-05
-0.000120799
1.53627e-05
-0.000122429
1.64509e-05
-0.000124219
1.75024e-05
-0.000126178
1.85078e-05
-0.000128318
1.94566e-05
-0.000130655
2.03363e-05
-0.000133216
2.1129e-05
-0.000136035
2.18126e-05
-0.000139157
2.23618e-05
-0.000142652
2.27477e-05
-0.000146582
2.29756e-05
-0.000151146
2.30241e-05
-0.000156382
-0.00016307
2.30408e-05
4.61567e-06
-0.000100671
4.5755e-06
-0.000120055
5.18694e-06
-0.000115085
6.29205e-06
-0.000114954
7.37878e-06
-0.000115801
8.42711e-06
-0.000116755
9.45765e-06
-0.000117816
1.04732e-05
-0.000119
1.14708e-05
-0.000120318
1.24452e-05
-0.000121774
1.3389e-05
-0.000123373
1.42924e-05
-0.000125123
1.5144e-05
-0.00012703
1.59298e-05
-0.000129104
1.66326e-05
-0.000131358
1.72288e-05
-0.000133812
1.76843e-05
-0.000136491
1.79561e-05
-0.000139429
1.79813e-05
-0.000142677
1.76984e-05
-0.000146299
1.69949e-05
-0.000150442
1.58145e-05
-0.000155201
-0.000161135
1.38794e-05
3.97728e-06
-0.000104648
3.76111e-06
-0.000119839
4.40569e-06
-0.00011573
5.38756e-06
-0.000115935
6.3335e-06
-0.000116747
7.24586e-06
-0.000117668
8.13805e-06
-0.000118708
9.01061e-06
-0.000119873
9.85987e-06
-0.000121167
1.06799e-05
-0.000122594
1.14626e-05
-0.000124156
1.2197e-05
-0.000125857
1.287e-05
-0.000127703
1.34643e-05
-0.000129698
1.39567e-05
-0.000131851
1.4315e-05
-0.00013417
1.44938e-05
-0.00013667
1.44327e-05
-0.000139368
1.40455e-05
-0.00014229
1.32285e-05
-0.000145481
1.17954e-05
-0.000149009
9.57013e-06
-0.000152976
-0.000157595
6.03025e-06
3.37631e-06
-0.000108025
3.04625e-06
-0.000119509
3.67411e-06
-0.000116358
4.5132e-06
-0.000116774
5.31527e-06
-0.000117549
6.08913e-06
-0.000118442
6.84205e-06
-0.000119461
7.57344e-06
-0.000120604
8.27939e-06
-0.000121873
8.95377e-06
-0.000123268
9.58812e-06
-0.00012479
1.01716e-05
-0.000126441
1.06901e-05
-0.000128222
1.1125e-05
-0.000130133
1.14502e-05
-0.000132176
1.16295e-05