/*--------------------------------*- C++ -*----------------------------------*\
| =========                 |                                                 |
| \\      /  F ield         | OpenFOAM: The Open Source CFD Toolbox           |
|  \\    /   O peration     | Version:  2206                                  |
|   \\  /    A nd           | Website:  www.openfoam.com                      |
|    \\/     M anipulation  |                                                 |
\*---------------------------------------------------------------------------*/
FoamFile
{
    version     2.0;
    format      ascii;
    arch        "LSB;label=32;scalar=64";
    class       volScalarField;
    location    "0.85";
    object      p;
}
// * * * * * * * * * * * * * * * * * * * * * * * * * * * * * * * * * * * * * //

dimensions      [1 -1 -2 0 0 0 0];

internalField   nonuniform List<scalar> 
2268
(
1052.48
1043.95
1028.08
1007.41
986.91
968.637
949.875
929.723
907.653
884.029
859.355
834.874
812.543
794.64
782.312
774.223
771.764
773.195
779.983
794.387
812.496
825.701
828.806
995.048
985.715
968.531
946.253
925.016
907.616
890.897
871.075
849.017
825.259
800.301
775.428
752.714
734.536
722.665
717.554
715.489
714.208
718.58
734.205
752.906
764.352
768.028
934.286
924.268
906.619
883.813
863.166
847.521
831.952
812.648
790.573
766.518
740.957
715.235
691.645
672.847
661.205
657.343
656.781
656.503
662.872
679.251
696.393
704.191
706.678
870.209
860.153
843.007
820.212
800.265
786.828
773.233
754.688
732.464
707.847
681.285
654.18
629.192
609.462
597.468
593.589
595.001
598.923
608.624
625.233
640.492
644.797
645.241
804.012
794.436
778.381
756.032
737.34
726.78
715.59
697.619
674.814
649.211
621.18
592.115
565.12
544.063
531.603
527.878
531.068
539.966
554.16
571.233
584.778
585.925
583.709
736.909
727.979
713.658
692.806
676.273
668.915
659.637
641.715
617.81
590.781
560.882
529.239
499.464
476.537
463.5
460.08
465.364
478.705
498.149
518.389
530.392
527.613
521.562
669.691
661.461
649.814
631.987
618.323
613.567
604.933
586.959
561.527
532.386
499.745
464.548
431.146
405.994
392.569
389.761
397.459
416.023
441.792
467.077
478.158
469.229
457.979
603.951
595.945
588.104
574.939
564.268
560.992
552.968
532.99
505.256
472.166
435.383
395.74
358.144
330.898
317.761
316.024
326.582
351.951
386.28
418.47
430.421
412.927
394.477
780.592
703.196
657.906
672.313
666.635
537.477
477.974
449.518
412.657
383.172
367.69
373.261
388.714
430.416
511.89
601.326
660.293
710.348
777.453
728.454
629.449
577.054
597.828
590.934
473.693
412.154
387.019
358.606
321.753
316.034
328.481
345.2
379.291
459.584
548.085
607.023
643.214
718.435
662.204
542.886
494.876
531.525
530.469
431.676
361.851
335.93
307.939
274.571
262.823
283.038
296.376
315.782
397.665
500.5
570.789
590.164
656.507
585.169
462.946
430.438
480.522
490.995
404.52
322.771
297.393
278.948
257.469
237.415
241.577
243.61
251.852
334.81
460.956
557.294
581.117
608.902
511.574
399.176
377.836
435.24
461.019
373.339
291.697
276.861
267.399
250.235
229.253
215.58
194.593
187.604
281.132
431.035
551.152
576.466
579.627
451.129
346.251
335.941
395.381
430.087
338.313
271.818
267.387
259.172
241.764
220.828
194.132
159.167
145.586
236.278
403.08
546.663
566.494
556.129
405.16
305.894
306.483
360.816
396.816
306.662
258.642
259.219
250.234
233.526
211.822
178.25
148.406
150.634
233.168
372.306
491.779
530.578
519.6
367.598
286.36
281.317
327.139
356.112
272.151
246.571
249.073
239.482
224.501
200.284
163.199
137.136
144.555
221.502
324.296
419.211
469.234
455.167
499.807
494.616
495.367
492.75
485.794
477.082
466.632
447.83
417.86
379.079
334.164
286.062
240.954
209.096
196.136
194.874
208.621
249.284
303.36
353.166
372.195
325.477
276.919
371.38
366.59
376.994
379.109
367.98
347.171
333.223
334.745
324.633
277.106
227.271
185.913
136.207
100.216
91.4733
87.5755
78.4326
101.699
207.46
319.84
304.16
164.994
86.3505
290.129
267.618
281.6
289.771
269.846
229.75
186.051
158.525
147.045
147.975
139.799
122.307
94.42
77.6966
75.0849
74.6035
68.2672
68.3111
94.3208
154.37
167.279
53.1085
8.73934
184.285
172.891
158.581
133.76
76.5833
43.9378
18.5345
12.1295
12.6261
19.7133
51.7816
64.9777
62.3315
63.9442
69.9686
72.4418
68.646
66.3114
76.3734
95.1767
84.3695
15.2271
3.15881
96.5998
69.7217
24.9602
7.48759
1.21377
-2.35808
-3.55821
-3.17159
-2.50812
-0.687607
3.17121
9.93704
18.011
36.1504
51.7343
58.4407
61.4295
61.4886
63.4278
70.2046
44.7722
1.00484
10.672
32.08
14.0288
1.62391
-2.40785
-3.55449
-3.81809
-3.70481
-3.64945
-3.53878
-3.25488
-3.09125
-2.9201
-1.44488
4.22075
9.79095
27.1042
43.7145
45.1033
41.6921
42.8046
16.1929
-3.07989
13.102
4.23476
-1.54847
-3.52825
-4.15427
-4.22714
-4.14206
-3.97648
-3.87222
-3.76412
-3.69227
-3.61631
-3.43084
-3.23762
-3.4714
-2.9679
1.40932
6.42977
5.69549
7.82075
7.85204
-10.1497
-14.6859
11.2761
-2.36921
-5.36579
-5.24448
-5.08065
-4.83418
-4.60737
-4.39863
-4.24821
-4.13251
-4.01063
-3.86508
-3.67843
-3.49153
-3.30352
-3.12189
-3.15306
-3.08672
-2.34149
-1.0289
-1.61576
-12.0829
-29.6664
3.43582
-2.83042
-6.37028
-5.84054
-5.6163
-5.27065
-4.95286
-4.66683
-4.45009
-4.29173
-4.15566
-4.00133
-3.83218
-3.65821
-3.4723
-3.32057
-3.24378
-3.15351
-2.9269
-2.72219
-3.59211
-8.35628
-17.7172
0.080976
-2.66044
-6.27193
-6.15516
-5.96378
-5.59439
-5.22634
-4.86573
-4.57065
-4.34671
-4.17181
-4.01968
-3.86826
-3.69499
-3.53387
-3.41392
-3.3609
-3.35013
-3.31293
-3.3298
-3.77289
-5.09642
-7.77301
1.03822
-2.52298
-5.67088
-6.44285
-6.17568
-5.84714
-5.45582
-5.03708
-4.66343
-4.37584
-4.16676
-4.00086
-3.84483
-3.70822
-3.57831
-3.48058
-3.44027
-3.4643
-3.51833
-3.56805
-3.60973
-3.65182
-3.63247
-0.0838046
-2.26544
-4.79056
-6.26046
-6.29275
-6.01781
-5.62464
-5.16032
-4.71586
-4.37559
-4.14228
-3.97288
-3.83538
-3.71814
-3.61826
-3.5465
-3.52574
-3.55685
-3.63925
-3.6812
-3.56358
-3.27151
-2.93341
-2.66903
-2.13095
-3.73257
-5.55313
-6.09134
-5.98455
-5.63529
-5.16559
-4.68962
-4.32096
-4.08192
-3.92603
-3.81122
-3.71913
-3.64684
-3.60136
-3.59691
-3.63953
-3.70723
-3.73389
-3.62728
-3.37761
-3.08191
-2.72866
-2.35172
-3.09451
-4.54687
-5.39213
-5.54998
-5.3471
-4.9669
-4.52828
-4.18723
-3.97848
-3.85459
-3.77029
-3.70695
-3.66096
-3.63567
-3.63708
-3.66782
-3.70521
-3.7238
-3.62759
-3.43868
-3.21454
-2.96226
-2.77332
-3.0464
-3.71584
-4.35106
-4.68586
-4.70316
-4.48477
-4.20839
-3.97527
-3.83807
-3.76245
-3.71541
-3.68172
-3.65893
-3.64917
-3.65509
-3.67938
-3.70958
-3.71273
-3.65834
-3.53216
-3.3626
-3.21465
-3.1312
-3.20694
-3.21004
-3.41021
-3.72807
-3.91804
-3.91837
-3.82399
-3.73204
-3.68238
-3.66464
-3.6561
-3.65001
-3.64672
-3.64864
-3.65832
-3.67794
-3.70632
-3.7251
-3.70536
-3.62993
-3.51298
-3.40143
-3.23434
-3.19076
-2.90301
-2.82591
-3.02868
-3.27407
-3.42259
-3.48615
-3.51903
-3.55007
-3.58021
-3.60365
-3.62019
-3.63238
-3.64308
-3.65504
-3.67002
-3.69106
-3.71363
-3.72093
-3.68473
-3.60767
-3.50632
-3.10876
-3.0093
-2.72345
-2.57752
-2.68798
-2.91327
-3.11787
-3.26638
-3.37407
-3.45658
-3.51941
-3.56539
-3.5983
-3.62181
-3.63893
-3.65215
-3.66291
-3.67275
-3.68236
-3.68672
-3.66873
-3.62043
-3.52833
-2.94456
-2.86549
-2.66272
-2.55206
-2.62227
-2.80533
-3.00256
-3.17002
-3.30325
-3.40711
-3.48616
-3.54492
-3.58787
-3.61869
-3.64012
-3.65413
-3.66182
-3.66339
-3.65878
-3.64708
-3.62436
-3.58243
-3.51982
-2.88857
-2.8439
-2.71207
-2.6535
-2.71004
-2.84962
-3.01198
-3.16305
-3.292
-3.39709
-3.47988
-3.5434
-3.59101
-3.62564
-3.64949
-3.66402
-3.67
-3.66745
-3.65567
-3.63386
-3.60104
-3.55625
-3.49713
-2.93459
-2.91135
-2.83671
-2.81131
-2.85852
-2.96122
-3.08587
-3.21008
-3.32269
-3.41897
-3.49793
-3.5606
-3.60883
-3.64452
-3.66922
-3.68399
-3.68939
-3.68558
-3.67221
-3.64891
-3.61618
-3.57154
-3.516
-3.03096
-3.02111
-2.98496
-2.97895
-3.01855
-3.09436
-3.18868
-3.28748
-3.38151
-3.46539
-3.53677
-3.59522
-3.64137
-3.67617
-3.70057
-3.71529
-3.72079
-3.71732
-3.70503
-3.68398
-3.65425
-3.61591
-3.5701
-3.15122
-3.14643
-3.13287
-3.13912
-3.17353
-3.23142
-3.30372
-3.38191
-3.45902
-3.53019
-3.59267
-3.64526
-3.68776
-3.72044
-3.74376
-3.75816
-3.76402
-3.76163
-3.75132
-3.7334
-3.70814
-3.67655
-3.63971
-3.28278
-3.2789
-3.27787
-3.29093
-3.32149
-3.36731
-3.42389
-3.48613
-3.54903
-3.6086
-3.66223
-3.70843
-3.74655
-3.77644
-3.7982
-3.81204
-3.81826
-3.81715
-3.80906
-3.79444
-3.77388
-3.74853
-3.71926
-3.41878
-3.41593
-3.42095
-3.43676
-3.46386
-3.50107
-3.54623
-3.59623
-3.64756
-3.69709
-3.74257
-3.78253
-3.81612
-3.84293
-3.86286
-3.87596
-3.88243
-3.88254
-3.87665
-3.86527
-3.84899
-3.82897
-3.8059
-3.55653
-3.55482
-3.56235
-3.57846
-3.60221
-3.6329
-3.66949
-3.71004
-3.75204
-3.79312
-3.83143
-3.86563
-3.89485
-3.91858
-3.93658
-3.94882
-3.9554
-3.95655
-3.95264
-3.94415
-3.93175
-3.91588
-3.89769
-3.69465
-3.69381
-3.70204
-3.71716
-3.73772
-3.76323
-3.7932
-3.82633
-3.86082
-3.89488
-3.92702
-3.9561
-3.9813
-4.00209
-4.01818
-4.02947
-4.03602
-4.03799
-4.0357
-4.02957
-4.02013
-4.00788
-3.99365
-3.83225
-3.83202
-3.84002
-3.8536
-3.87119
-3.89246
-3.91717
-3.94439
-3.97281
-4.00105
-4.02796
-4.05258
-4.07418
-4.09226
-4.10653
-4.11684
-4.1232
-4.12575
-4.12473
-4.12049
-4.11346
-4.10409
-4.09307
-3.96886
-3.96902
-3.97637
-3.98823
-4.00314
-4.02088
-4.04133
-4.06378
-4.08725
-4.11069
-4.13319
-4.15396
-4.17239
-4.18803
-4.20058
-4.2099
-4.21596
-4.21886
-4.21879
-4.21603
-4.21093
-4.20388
-4.19542
-4.10429
-4.10468
-4.1112
-4.12138
-4.13392
-4.14871
-4.16565
-4.18421
-4.20361
-4.22307
-4.24185
-4.25933
-4.275
-4.28845
-4.29942
-4.30776
-4.31344
-4.31651
-4.31711
-4.31548
-4.31191
-4.30672
-4.30025
-4.23849
-4.23903
-4.24469
-4.2533
-4.26379
-4.27609
-4.29012
-4.30546
-4.32151
-4.33764
-4.3533
-4.36797
-4.38123
-4.39274
-4.40226
-4.40965
-4.41488
-4.41796
-4.41902
-4.41823
-4.41581
-4.41203
-4.40716
-4.37153
-4.37216
-4.37698
-4.38421
-4.39293
-4.40312
-4.41472
-4.42739
-4.44064
-4.454
-4.46701
-4.47928
-4.49044
-4.50023
-4.50843
-4.51492
-4.51965
-4.52263
-4.52396
-4.52375
-4.5222
-4.5195
-4.51583
-4.50353
-4.5042
-4.50825
-4.51428
-4.52148
-4.52987
-4.53944
-4.54986
-4.56077
-4.57179
-4.58256
-4.59277
-4.60212
-4.61038
-4.61738
-4.62301
-4.62722
-4.63001
-4.63144
-4.63163
-4.6307
-4.62885
-4.62628
-4.63461
-4.63529
-4.63866
-4.64364
-4.64954
-4.65642
-4.66425
-4.67278
-4.68171
-4.69075
-4.69961
-4.70804
-4.71581
-4.72272
-4.72863
-4.73344
-4.73712
-4.73965
-4.74107
-4.74148
-4.74097
-4.73969
-4.73778
-4.76492
-4.76555
-4.76833
-4.77242
-4.7772
-4.78279
-4.78916
-4.79608
-4.80332
-4.81067
-4.81789
-4.82479
-4.83117
-4.83688
-4.8418
-4.84585
-4.84898
-4.8512
-4.85253
-4.85303
-4.85278
-4.8519
-4.8505
-4.89458
-4.89513
-4.8974
-4.90073
-4.90456
-4.90904
-4.91414
-4.91969
-4.9255
-4.93139
-4.9372
-4.94275
-4.94792
-4.95256
-4.95658
-4.95991
-4.96252
-4.9644
-4.96557
-4.96608
-4.96599
-4.96539
-4.96437
-5.02372
-5.02413
-5.02598
-5.02865
-5.03166
-5.0352
-5.03921
-5.04357
-5.04814
-5.05278
-5.05736
-5.06175
-5.06584
-5.06952
-5.07273
-5.07541
-5.07752
-5.07906
-5.08004
-5.0805
-5.0805
-5.0801
-5.07938
-5.15246
-5.15269
-5.15419
-5.15628
-5.15858
-5.1613
-5.16437
-5.1677
-5.1712
-5.17474
-5.17825
-5.18162
-5.18476
-5.1876
-5.19008
-5.19216
-5.1938
-5.19502
-5.19581
-5.1962
-5.19624
-5.196
-5.19552
-5.28087
-5.28091
-5.28211
-5.28369
-5.28537
-5.28737
-5.28962
-5.29205
-5.29461
-5.2972
-5.29977
-5.30224
-5.30455
-5.30664
-5.30847
-5.31
-5.31123
-5.31214
-5.31274
-5.31306
-5.31312
-5.31298
-5.3127
-5.40909
-5.40895
-5.40985
-5.41096
-5.4121
-5.41346
-5.41498
-5.41663
-5.41835
-5.42011
-5.42184
-5.42352
-5.42508
-5.4265
-5.42775
-5.4288
-5.42964
-5.43027
-5.43069
-5.43092
-5.43099
-5.43092
-5.43077
-5.53707
-5.53681
-5.53748
-5.53814
-5.53878
-5.53957
-5.54043
-5.54138
-5.54236
-5.54337
-5.54436
-5.54532
-5.54622
-5.54704
-5.54776
-5.54837
-5.54886
-5.54923
-5.54948
-5.54962
-5.54966
-5.54963
-5.54955
-5.66545
-5.66506
-5.66524
-5.66544
-5.66565
-5.66591
-5.66616
-5.66645
-5.66675
-5.66705
-5.66735
-5.66763
-5.6679
-5.66815
-5.66837
-5.66855
-5.6687
-5.66881
-5.66888
-5.66892
-5.66893
-5.66893
-5.66892
277.593
290.167
303.034
308.085
122.739
168.067
206.943
225.413
47.9042
79.096
122.325
153.229
19.1909
37.5831
77.6496
111.963
20.3593
25.7573
42.1017
59.4611
12.9922
11.4214
11.0554
12.607
5.49637
4.70553
4.93267
5.19171
3.90194
3.94504
4.39023
4.82354
4.197
5.00016
5.86131
6.4387
4.75661
6.02743
6.77369
7.08536
2.56094
5.35579
3.91989
2.96376
-1.94642
-1.93339
-2.02817
-0.179451
-2.47639
-2.37508
-2.23679
-2.06217
-2.74766
-2.61308
-2.48039
-2.40877
-3.10724
-3.02718
-2.90796
-2.74548
-3.30125
-3.233
-3.14556
-3.01523
-3.4116
-3.33645
-3.26683
-3.15739
-3.44199
-3.37877
-3.31026
-3.23107
-3.44395
-3.38473
-3.32209
-3.25955
-3.43736
-3.39206
-3.34491
-3.29855
-3.46466
-3.42986
-3.39603
-3.36327
-3.53096
-3.50466
-3.47905
-3.45444
-3.60917
-3.58897
-3.56936
-3.55057
-3.69538
-3.67977
-3.6646
-3.64998
-3.78722
-3.77502
-3.76311
-3.75157
-3.88293
-3.8733
-3.86386
-3.85466
-3.98205
-3.97444
-3.96693
-3.95956
-4.08397
-4.07796
-4.07198
-4.06605
-4.18831
-4.18358
-4.17884
-4.17409
-4.29474
-4.29105
-4.28732
-4.28354
-4.40295
-4.40011
-4.3972
-4.39423
-4.51269
-4.51052
-4.50828
-4.50597
-4.6238
-4.62212
-4.62038
-4.61858
-4.73595
-4.73468
-4.73335
-4.73196
-4.84913
-4.84818
-4.84717
-4.84611
-4.96336
-4.96266
-4.96192
-4.96114
-5.07867
-5.07818
-5.07766
-5.07712
-5.19505
-5.19473
-5.1944
-5.19406
-5.31242
-5.31223
-5.31204
-5.31185
-5.43063
-5.43054
-5.43045
-5.43038
-5.54949
-5.54946
-5.54944
-5.54945
-5.66892
-5.66893
-5.66895
-5.66901
313.664
265.115
236.755
262.281
278.283
223.426
223.313
223.96
211.696
187.253
158.717
132.018
106.211
93.6829
145.538
210.32
270.566
326.93
331.965
235.172
189.967
151.164
168.129
197.525
157.912
172.214
162.787
121.995
56.1542
33.2818
33.0834
24.3491
-3.07671
6.64865
31.4738
70.5757
111.769
202.128
173.171
101.217
55.2846
77.3541
94.4102
64.4579
66.1062
45.5169
-9.26952
-21.4
-26.7539
-35.8415
-24.2097
-21.8149
-23.3854
-17.6389
0.538086
38.9676
176.866
118.458
51.4031
32.585
57.0238
11.9849
-6.0108
-16.256
-23.1227
-25.323
-26.4222
-28.7031
-32.0231
-31.2798
-28.9941
-28.7452
-26.9755
-19.3254
3.38783
53.5376
61.0907
29.8832
54.3516
88.5868
-9.38186
-23.5422
-26.4765
-27.59
-27.7553
-28.5525
-29.724
-30.2273
-30.5736
-31.0598
-31.5012
-30.9968
-27.7057
-15.3051
9.8475
16.235
16.5201
77.3658
126.098
-12.7412
-25.392
-28.0104
-28.5479
-29.0273
-29.9297
-30.7061
-31.0287
-31.1592
-31.492
-31.7314
-31.8017
-30.482
-24.0645
-9.7137
5.57633
8.21471
58.1178
139.727
-19.0853
-25.5789
-28.3445
-29.1278
-29.6228
-30.2507
-30.8781
-31.2061
-31.4903
-31.7086
-31.7113
-31.6194
-31.153
-28.401
-22.3672
5.60158
7.39604
21.8195
112.243
84.7231
-29.6854
-28.7037
-29.5264
-29.937
-30.2744
-30.9606
-31.4226
-31.725
-31.7682
-31.5102
-31.4639
-31.3651
-29.5606
-26.9402
7.38591
10.3656
18.8361
55.632
116.933
41.2198
-25.8128
-29.0032
-29.9236
-30.2985
-31.0283
-31.5931
-31.8611
-32.1357
-32.0104
-30.9638
-27.1833
-24.9341
-21.4669
7.77874
11.524
21.5685
39.2244
68.6739
69.6399
-12.9965
-24.1811
-28.9437
-30.0748
-30.3629
-30.4973
-30.6061
-31.4232
-24.4133
-17.0425
-15.1166
-15.0995
-9.81644
-2.06721
-5.26325
7.54089
40.1328
55.3445
57.5844
29.8976
-4.5801
-23.8381
-29.0107
-28.5831
-27.6311
-26.388
-19.2826
-12.6318
-6.28641
-5.97381
-7.17102
-2.38752
9.14472
25.1153
28.0721
27.0066
33.0962
48.8318
88.4571
78.3169
-16.2923
-27.3077
-23.9354
-21.753
-11.3312
-0.650761
-0.441054
-3.5541
-3.48215
-4.19397
-1.72062
-2.07556
-2.08899
-1.98435
2.20509
21.988
25.9572
71.2696
80.0068
28.641
-13.9352
-32.0873
-18.3042
3.64272
-3.08649
-3.15526
-2.84115
-2.87355
-3.23512
-2.11906
-2.33026
-2.23938
-2.07846
-1.94214
-2.10319
0.371145
18.2341
28.3604
20.5198
17.8117
23.0843
8.45965
-2.25181
-2.72054
-2.71329
-2.7145
-2.73594
-2.89095
-2.43726
-2.45834
-2.31206
-2.20771
-2.12899
-2.1007
-2.09884
-2.05283
-1.78412
1.1601
6.23652
0.00746267
-2.62166
-2.59488
-2.69752
-2.7141
-2.70899
-2.70925
-2.80842
-2.845
-2.70423
-2.4791
-2.38435
-2.31735
-2.31966
-2.36888
-2.45675
-2.59015
-2.67961
-2.67727
-2.69107
-2.67514
-2.69141
-2.7067
-2.71894
-2.71597
-2.70762
-2.74687
-2.76179
-2.91252
-2.66842
-2.56789
-2.51066
-2.50474
-2.53316
-2.57392
-2.6553
-2.764
-2.78854
-2.78916
-2.77837
-2.77171
-2.7645
-2.75707
-2.74196
-2.7184
-2.70426
-2.71637
-3.05852
-2.85319
-2.7482
-2.69818
-2.68686
-2.70136
-2.73163
-2.78164
-2.83502
-2.85898
-2.86513
-2.8638
-2.85637
-2.84009
-2.81543
-2.78305
-2.74721
-2.68135
-2.71524
-3.14829
-3.00258
-2.91195
-2.86911
-2.85533
-2.8601
-2.87774
-2.90609
-2.93717
-2.95749
-2.96487
-2.96311
-2.95153
-2.92827
-2.89273
-2.84749
-2.81019
-2.68505
-2.76654
-3.22316
-3.12633
-3.05861
-3.02337
-3.00886
-3.00749
-3.0159
-3.03179
-3.05036
-3.06515
-3.07243
-3.07103
-3.05763
-3.0304
-2.98978
-2.94117
-2.91042
-2.76606
-2.88811
-3.31109
-3.24565
-3.19607
-3.16655
-3.15177
-3.14705
-3.15
-3.15874
-3.17042
-3.18163
-3.18902
-3.18872
-3.17561
-3.14895
-3.11181
-3.08258
-3.07491
-2.96119
-3.08059
-3.41479
-3.36601
-3.32758
-3.30187
-3.28715
-3.28067
-3.28048
-3.2852
-3.2934
-3.30377
-3.31341
-3.31637
-3.30632
-3.28492
-3.25993
-3.26312
-3.31228
-3.27649
-3.29404
-3.52032
-3.48273
-3.45202
-3.43004
-3.41632
-3.40926
-3.40755
-3.41047
-3.41793
-3.43073
-3.44591
-3.45479
-3.44985
-3.43551
-3.42543
-3.46005
-3.56457
-3.61985
-3.50637
-3.62632
-3.59649
-3.57161
-3.55296
-3.5405
-3.53349
-3.53126
-3.53392
-3.54312
-3.56243
-3.58724
-3.60396
-3.60329
-3.5922
-3.59132
-3.63743
-3.77731
-3.86025
-3.67334
-3.73276
-3.70876
-3.6882
-3.67213
-3.66084
-3.65401
-3.6517
-3.65497
-3.66822
-3.69809
-3.73511
-3.75825
-3.75712
-3.74242
-3.73398
-3.77602
-3.88566
-3.91466
-3.76379
-3.83962
-3.82005
-3.80283
-3.78885
-3.77846
-3.77161
-3.76899
-3.77276
-3.79093
-3.832
-3.87835
-3.90199
-3.89377
-3.86458
-3.83206
-3.84417
-3.91001
-3.89629
-3.79241
-3.94741
-3.93132
-3.91673
-3.90437
-3.89459
-3.88734
-3.88367
-3.88634
-3.9062
-3.95259
-3.99862
-4.0159
-3.99833
-3.95336
-3.90239
-3.87037
-3.90479
-3.89248
-3.82613
-4.05622
-4.04294
-4.03057
-4.01964
-4.01042
-4.00269
-3.99741
-3.99663
-4.01013
-4.05462
-4.08982
-4.09927
-4.0759
-4.02944
-3.97552
-3.94735
-3.9512
-3.94139
-3.90231
-4.16615
-4.15526
-4.14487
-4.13537
-4.1269
-4.11916
-4.11268
-4.10882
-4.11418
-4.13976
-4.16348
-4.16892
-4.15451
-4.12755
-4.09099
-4.06424
-4.05293
-4.04007
-4.01349
-4.27718
-4.26834
-4.25976
-4.25174
-4.24433
-4.23725
-4.23058
-4.22481
-4.22373
-4.23341
-4.24812
-4.25736
-4.25735
-4.24735
-4.22514
-4.19765
-4.17637
-4.15976
-4.13861
-4.3892
-4.38211
-4.37515
-4.36855
-4.36236
-4.35643
-4.35073
-4.34554
-4.34243
-4.34477
-4.3544
-4.36675
-4.3742
-4.36991
-4.35196
-4.32536
-4.30087
-4.28287
-4.2659
-4.50201
-4.49639
-4.49081
-4.48549
-4.48047
-4.47574
-4.47135
-4.46762
-4.46529
-4.46603
-4.47216
-4.48188
-4.48762
-4.48297
-4.4666
-4.44335
-4.42124
-4.40513
-4.39262
-4.61549
-4.61105
-4.60661
-4.60235
-4.59835
-4.59461
-4.59122
-4.58847
-4.5868
-4.58705
-4.58987
-4.59474
-4.5966
-4.59035
-4.57577
-4.55703
-4.53964
-4.52746
-4.51941
-4.72956
-4.72607
-4.72257
-4.71922
-4.71605
-4.7131
-4.71036
-4.70797
-4.70616
-4.70561
-4.70643
-4.70778
-4.70676
-4.69988
-4.68716
-4.67239
-4.65971
-4.65159
-4.64723
-4.84428
-4.84159
-4.8389
-4.83633
-4.8339
-4.83162
-4.8294
-4.8272
-4.82523
-4.82435
-4.82419
-4.82382
-4.82192
-4.81497
-4.80355
-4.79177
-4.78326
-4.77844
-4.77655
-4.95978
-4.95779
-4.95583
-4.954
-4.95226
-4.95062
-4.94898
-4.94713
-4.94535
-4.9448
-4.94439
-4.94351
-4.94215
-4.93538
-4.9248
-4.91572
-4.9107
-4.90809
-4.90746
-5.07617
-5.0748
-5.07353
-5.07238
-5.07129
-5.07028
-5.0693
-5.06798
-5.06673
-5.06686
-5.06643
-5.06616
-5.06638
-5.05985
-5.05032
-5.04414
-5.04143
-5.04001
-5.03982
-5.19346
-5.19264
-5.19198
-5.19147
-5.19099
-5.19058
-5.19026
-5.18957
-5.18912
-5.19007
-5.18998
-5.1912
-5.19283
-5.18646
-5.17934
-5.17553
-5.17398
-5.17325
-5.17318
-5.31154
-5.31122
-5.3111
-5.31118
-5.31131
-5.31153
-5.31189
-5.312
-5.31249
-5.31411
-5.31467
-5.31702
-5.31907
-5.31371
-5.30992
-5.30781
-5.30703
-5.30691
-5.30695
-5.4303
-5.4304
-5.43079
-5.43141
-5.43218
-5.43312
-5.43428
-5.43536
-5.43683
-5.43894
-5.44022
-5.44275
-5.44451
-5.44179
-5.44032
-5.43989
-5.44006
-5.4406
-5.44088
-5.54956
-5.55004
-5.5509
-5.55211
-5.55359
-5.55536
-5.5574
-5.55953
-5.56202
-5.56467
-5.56675
-5.56936
-5.57013
-5.57041
-5.57078
-5.57208
-5.57351
-5.57486
-5.57548
-5.66923
-5.67005
-5.67142
-5.67324
-5.67552
-5.67816
-5.68114
-5.68431
-5.68802
-5.69142
-5.69448
-5.69748
-5.69604
-5.69895
-5.70185
-5.70528
-5.70843
-5.71095
-5.71192
)
;

boundaryField
{
    leftWall
    {
        type            calculated;
        value           nonuniform List<scalar> 
50
(
1052.48
995.048
934.286
870.209
804.012
736.909
669.691
603.951
499.807
371.38
290.129
184.285
96.5998
32.08
4.23476
-2.36921
-2.83042
-2.66044
-2.52298
-2.26544
-2.13095
-2.35172
-2.77332
-3.1312
-3.23434
-3.10876
-2.94456
-2.88857
-2.93459
-3.03096
-3.15122
-3.28278
-3.41878
-3.55653
-3.69465
-3.83225
-3.96886
-4.10429
-4.23849
-4.37153
-4.50353
-4.63461
-4.76492
-4.89458
-5.02372
-5.15246
-5.28087
-5.40909
-5.53707
-5.66545
)
;
    }
    rightWall
    {
        type            calculated;
        value           nonuniform List<scalar> 
50
(
777.453
718.435
656.507
608.902
579.627
556.129
519.6
455.167
331.965
202.128
176.866
53.5376
9.8475
-9.7137
-22.3672
-26.9402
-21.4669
-9.81644
-2.38752
-1.72062
-2.11906
-2.43726
-2.845
-2.76179
-2.71637
-2.71524
-2.76654
-2.88811
-3.08059
-3.29404
-3.50637
-3.67334
-3.76379
-3.79241
-3.82613
-3.90231
-4.01349
-4.13861
-4.2659
-4.39262
-4.51941
-4.64723
-4.77655
-4.90746
-5.03982
-5.17318
-5.30695
-5.44088
-5.57548
-5.71192
)
;
    }
    lowerWall
    {
        type            calculated;
        value           nonuniform List<scalar> 
62
(
1081.91
1073.37
1057.51
1036.84
1016.34
998.066
979.304
959.152
937.082
913.458
888.784
864.303
841.972
824.07
811.738
802.804
799.596
802.301
809.283
823.644
841.622
854.935
858.195
828.806
768.028
706.678
645.241
583.709
521.562
457.979
394.477
340.095
352.669
365.536
370.588
780.592
728.454
662.204
585.169
511.574
451.129
405.16
367.598
809.641
731.664
686.351
701.014
695.406
565.946
503.937
475.519
437.782
405.713
386.541
391.782
407.236
452.969
537.709
627.145
686.112
735.836
802.272
)
;
    }
    atmosphere
    {
        type            calculated;
        value           nonuniform List<scalar> 
46
(
-5.72904
-5.72904
-5.72904
-5.72904
-5.72904
-5.72904
-5.72904
-5.72904
-5.72904
-5.72904
-5.72904
-5.72904
-5.72904
-5.72904
-5.72904
-5.72904
-5.72904
-5.72904
-5.72904
-5.72904
-5.72904
-5.72904
-5.72904
-5.72904
-5.72904
-5.72904
-5.72905
-5.72931
-5.73027
-5.73197
-5.73406
-5.73676
-5.73978
-5.74327
-5.7469
-5.75158
-5.7553
-5.75899
-5.76236
-5.75902
-5.76334
-5.76781
-5.77281
-5.77718
-5.78068
-5.78164
)
;
    }
    defaultFaces
    {
        type            empty;
    }
}


// ************************************************************************* //
