/*--------------------------------*- C++ -*----------------------------------*\
| =========                 |                                                 |
| \\      /  F ield         | OpenFOAM: The Open Source CFD Toolbox           |
|  \\    /   O peration     | Version:  2206                                  |
|   \\  /    A nd           | Website:  www.openfoam.com                      |
|    \\/     M anipulation  |                                                 |
\*---------------------------------------------------------------------------*/
FoamFile
{
    version     2.0;
    format      ascii;
    arch        "LSB;label=32;scalar=64";
    class       volScalarField;
    location    "0.875";
    object      alpha.water;
}
// * * * * * * * * * * * * * * * * * * * * * * * * * * * * * * * * * * * * * //

dimensions      [0 0 0 0 0 0 0];

internalField   nonuniform List<scalar> 
2268
(
1
1
1
1
1
1
1
1
1
1
1
1
1
0.999999
0.998257
0.964039
0.951394
0.994616
0.994624
0.989131
0.986455
0.993949
0.999187
1
1
1
1
1
1
1
1
1
1
1
1
1
0.999998
0.994345
0.951927
0.948412
0.951817
0.959684
0.95312
0.95312
0.98821
0.999986
1
1
1
1
1
1
1
1
1
1
1
1
1
1
0.999931
0.989313
0.952341
0.946238
0.946238
0.960504
0.972718
0.998209
0.999986
1
1
1
1
1
1
1
1
1
1
1
1
1
1
1
0.999999
0.996904
0.989949
0.998189
1
1
1
0.999987
1
1
1
1
1
1
1
1
1
1
1
1
1
1
1
1
1
1
1
1
1
1
1
1
1
1
1
1
1
1
1
1
1
1
1
1
1
1
1
1
1
1
1
1
1
0.999992
1
1
1
1
1
0.999993
0.99995
1
1
1
0.999999
1
1
1
1
1
1
1
1
0.999997
0.999993
0.999999
0.999972
1
1
1
1
0.999998
0.998539
0.997612
0.999983
0.999999
0.999985
0.999954
0.999967
0.99999
1
1
1
1
1
0.999995
0.999924
0.99981
0.999951
0.999959
0.982797
0.967828
0.968916
0.985421
0.98561
0.984657
0.904912
0.904961
0.858326
0.796653
0.632698
0.630051
0.630087
0.773631
0.877041
0.877055
0.877017
0.862144
0.862252
0.991218
0.98468
0.977339
0.961761
0.987475
0.987475
0.960786
0.821002
0.625224
0.59846
0.75054
0.676775
0.630081
0.644927
0.829117
0.804188
0.869189
0.868251
0.867076
0.991228
0.980522
0.827764
0.800727
0.987475
0.987422
0.838357
0.429288
0.238137
0.393324
0.781201
0.781264
0.771879
0.780477
0.671125
0.668378
0.702914
0.867076
0.72201
0.991183
0.965996
0.75849
0.794816
0.987354
0.956175
0.510357
0.0817172
0.0642725
0.223105
0.755725
0.781403
0.781428
0.781403
0.743934
0.668399
0.673723
0.711958
0.439325
0.990889
0.85839
0.758306
0.95247
0.986343
0.822542
0.183599
0.0496084
0.0526136
0.16529
0.66524
0.781416
0.781403
0.781427
0.78136
0.776437
0.712554
0.442985
0.438223
0.989912
0.761216
0.758875
0.769377
0.977293
0.648115
0.0496084
0.0490284
0.0493893
0.0629941
0.373495
0.780904
0.781423
0.78136
0.779854
0.729662
0.572087
0.600683
0.629721
0.965246
0.893541
0.908036
0.761356
0.964593
0.50955
0.0490284
0.0490284
0.0490284
0.0493893
0.0592223
0.450147
0.780871
0.77343
0.622258
0.620857
0.699096
0.842059
0.842032
0.978431
0.987436
0.982788
0.760736
0.945466
0.392908
0.0497173
0.0490284
0.0658609
0.0888334
0.0799209
0.283216
0.764118
0.760883
0.750075
0.749406
0.789286
0.84144
0.842468
1
1
1
1
0.999994
0.999994
0.999892
0.999982
0.99995
0.979033
0.907841
0.874427
0.87623
0.891232
0.90675
0.934758
0.973521
0.993769
0.999103
0.958615
0.862115
0.860588
0.995354
0.966848
1
0.950562
0.925248
0.860238
0.92058
0.999887
0.999919
0.885134
0.385013
0.167077
0.138021
0.13775
0.140701
0.156121
0.253613
0.519047
0.68776
0.652685
0.437777
0.281005
0.178065
0.413671
0.832379
0.674992
0.661869
0.84695
0.919583
0.921249
0.785155
0.181153
0.0871824
0.0884498
0.0618184
0.0236189
0.0236189
0.0236189
0.0238495
0.0371994
0.12759
0.191396
0.213824
0.221048
0.119155
0.0918298
0.0918298
0.746302
0.6079
0.790072
0.834308
0.702007
0.279006
0.123048
0.0810577
0.120836
0.130224
0.130743
0.134201
0.0470388
0.0239142
0.0240802
0.0240802
0.0246275
0.0511403
0.134778
0.193291
0.112019
0.0918298
0.338971
0.702665
0.402826
0.346105
0.132486
0.0450629
0.00145271
0.000585444
0.000284851
0.0433755
0.102525
0.130985
0.138873
0.145136
0.147421
0.139586
0.0471027
0.106414
0.241548
0.241548
0.241548
0.179399
0.152658
0.645864
0.587284
0.0106911
0.00533106
0.00113902
0.000459409
0.000148807
4.47953e-05
8.39537e-06
-1.72003e-06
-8.39919e-07
3.12654e-06
1.33291e-05
0.0462442
0.147934
0.155631
0.155631
0.153929
0.131144
0.214228
0.241468
0.21409
0.018354
0.0256503
0.345908
0.0019648
0.000913979
0.000184214
6.26412e-05
2.76546e-05
6.21586e-06
1.60339e-07
6.96735e-08
7.60829e-08
1.15655e-07
3.34422e-07
1.22551e-06
5.38527e-06
0.00154281
0.00627567
0.000359085
0.00171435
0.0141517
0.193341
0.158301
0.00735098
0.00740088
0.0462737
0.000478131
0.000187934
3.53479e-05
8.98489e-06
1.36271e-05
4.79632e-06
7.37617e-08
7.31546e-08
7.0747e-08
7.00178e-08
8.45892e-08
2.85094e-07
1.29095e-06
5.45528e-06
2.1603e-05
8.50886e-05
0.000358741
0.00331482
0.0924466
0.157889
0.00735098
0.00731774
0.000409698
0.000133598
3.18675e-05
6.53208e-06
1.43306e-06
9.22532e-06
1.88311e-05
1.88204e-05
1.27895e-06
7.00865e-08
5.73074e-08
3.85697e-08
5.14801e-08
3.05486e-07
2.13568e-06
1.10313e-05
5.2053e-05
0.000239866
0.00150471
0.0570514
0.113728
0.0120836
0.00740088
4.46859e-05
3.39767e-05
6.53141e-06
1.04e-06
1.97614e-07
5.5454e-07
4.82785e-06
4.24277e-06
2.54802e-06
8.2423e-07
1.35594e-07
3.82614e-08
2.35134e-08
5.87337e-08
3.08063e-07
2.11971e-06
1.22955e-05
5.99021e-05
0.000283161
0.00736086
0.0443903
0.0548252
0.00835722
1.64956e-05
1.10079e-05
1.09154e-06
2.01454e-07
2.29102e-08
1.08366e-08
4.90919e-09
1.97798e-09
1.26665e-08
1.8725e-08
1.6434e-07
6.90511e-08
1.03976e-08
1.91744e-08
5.00293e-06
2.6741e-05
3.29794e-05
4.55043e-05
8.16677e-05
0.000106476
0.020574
0.054151
0.0521674
6.94246e-05
1.19887e-05
2.0282e-07
3.02596e-08
5.86741e-09
2.42653e-09
2.0623e-09
2.07362e-09
3.0259e-09
1.98324e-08
2.31398e-08
3.25562e-08
1.01512e-08
2.20963e-09
1.65518e-09
6.03415e-05
0.000129138
0.000141692
0.000106989
0.000105232
0.000106989
0.000229599
0.00023259
0.000184624
7.62955e-06
4.11929e-08
5.42888e-09
2.74236e-09
2.20849e-09
2.13861e-09
2.07362e-09
3.10761e-09
1.68825e-08
3.10484e-08
3.23869e-08
1.70392e-08
2.50236e-09
1.65621e-09
1.5539e-06
0.000120019
0.000222947
0.000138099
0.000106989
0.0001093
0.000109853
0.000177344
0.00048802
0.00051703
6.9427e-07
3.09794e-09
2.77336e-09
2.51229e-09
2.21058e-09
2.69652e-09
4.02286e-09
4.78209e-09
1.33668e-08
3.08657e-08
2.01959e-08
2.80387e-09
1.61141e-09
1.10765e-09
1.04997e-09
0.000214206
0.000348533
0.000255474
0.000109853
0.000190424
0.000784572
0.000111208
0.000587778
0.000385502
6.95199e-07
3.09794e-09
2.79093e-09
7.72768e-09
1.67592e-08
3.8884e-08
4.28903e-09
2.75114e-09
2.5831e-09
5.29133e-09
4.09712e-09
1.75962e-09
1.15493e-09
1.02271e-09
8.40613e-10
0.000248419
0.000514459
0.000501436
0.000590147
0.000797618
2.25358e-05
0.000587778
0.000580732
0.000425516
4.72826e-05
5.72953e-08
1.28522e-07
7.17645e-07
3.82522e-07
2.28268e-08
1.52019e-09
1.00761e-09
9.83392e-10
1.35286e-09
1.50127e-09
1.43383e-09
1.27513e-09
8.32147e-10
3.23841e-10
5.85864e-05
0.000721212
0.000847482
0.000847482
3.63358e-07
0.000364038
0.000541152
0.000501477
0.000473614
0.000227434
1.47029e-05
1.20153e-06
3.26318e-07
4.03175e-08
4.37615e-09
1.2167e-09
9.59054e-10
9.56554e-10
1.34354e-09
1.44749e-09
1.32297e-09
9.50988e-10
3.11047e-10
9.52566e-11
9.52711e-11
0.000208221
0.000847482
8.11915e-08
5.87903e-06
0.00037083
0.000473614
0.000444156
0.00042869
0.000114385
3.70724e-06
6.1974e-07
8.5865e-08
1.0566e-08
1.76408e-09
9.27844e-10
9.13015e-10
1.44163e-09
1.67548e-09
1.49298e-09
1.00963e-09
3.53307e-10
9.819e-11
9.52569e-11
9.79819e-11
2.19855e-05
6.52367e-08
7.7923e-08
4.70633e-05
0.000272881
0.00042869
0.000306634
6.57862e-05
2.74907e-06
4.7872e-07
6.97793e-08
8.95306e-09
1.45125e-09
5.95072e-10
8.18011e-10
1.54732e-09
1.75378e-09
1.67925e-09
1.15618e-09
3.93073e-10
1.11413e-10
3.80426e-10
1.55029e-06
1.64612e-10
1.40194e-08
5.06494e-08
1.29142e-06
2.98571e-05
6.42689e-05
3.39258e-05
1.9947e-05
4.79069e-06
1.63918e-07
2.34439e-08
3.10906e-09
5.29738e-10
2.85008e-10
7.54983e-10
1.61212e-09
1.75378e-09
1.70622e-09
1.20881e-09
4.99698e-10
1.13714e-10
3.17133e-11
2.7007e-11
3.90145e-12
2.4348e-09
1.74812e-08
2.2597e-07
2.39126e-06
2.86761e-06
1.57742e-06
5.96206e-07
5.65872e-07
6.19939e-08
4.40834e-09
6.53436e-10
1.6152e-10
2.16109e-10
6.50346e-10
1.45718e-09
1.69e-09
1.51607e-09
9.75683e-10
3.7724e-10
9.26099e-11
1.57661e-11
3.90145e-12
3.80976e-12
3.82908e-10
5.17587e-09
6.36552e-08
4.16121e-07
4.77203e-07
2.5056e-07
8.54132e-08
2.15296e-08
5.6082e-09
8.8205e-10
1.51567e-10
7.18452e-11
1.74851e-10
5.49971e-10
1.04774e-09
1.07495e-09
8.93112e-10
5.156e-10
1.92216e-10
5.18487e-11
1.159e-11
3.97749e-12
3.7893e-12
9.0021e-11
1.05359e-09
9.19297e-09
5.94985e-08
6.59235e-08
3.38069e-08
1.12951e-08
2.77187e-09
6.92505e-10
1.47385e-10
4.37381e-11
4.57706e-11
1.29469e-10
3.44764e-10
4.50404e-10
4.15446e-10
3.02183e-10
1.58159e-10
6.22357e-11
2.26589e-11
8.47104e-12
2.46299e-12
1.33701e-12
2.90467e-11
1.09108e-10
1.06573e-09
7.12814e-09
7.77809e-09
3.97671e-09
1.37242e-09
4.12714e-10
1.10578e-10
3.94343e-11
1.26008e-11
2.32891e-11
6.86025e-11
1.15939e-10
1.10856e-10
9.0184e-11
5.84825e-11
3.058e-11
1.47025e-11
7.65315e-12
3.9827e-12
1.54499e-12
5.19708e-13
5.19497e-12
6.19235e-11
1.89981e-10
7.5815e-10
8.15515e-10
4.5753e-10
1.85677e-10
6.376e-11
2.90597e-11
6.83887e-12
3.05557e-12
7.64015e-12
1.84042e-11
1.88687e-11
1.59593e-11
1.15215e-11
7.46484e-12
4.50991e-12
2.71226e-12
1.66783e-12
9.3357e-13
3.7407e-13
1.44518e-13
6.46491e-13
2.25439e-11
3.21655e-11
9.71948e-11
9.92443e-11
5.97086e-11
3.33537e-11
1.60449e-11
4.24592e-12
6.86142e-13
5.10996e-13
1.18182e-12
2.06096e-12
1.86307e-12
1.48311e-12
1.05514e-12
7.37731e-13
5.14106e-13
3.33138e-13
1.89937e-13
9.15661e-14
4.52448e-14
4.44436e-14
7.77982e-14
3.44225e-12
8.50586e-12
1.18122e-11
1.22015e-11
1.28823e-11
6.59311e-12
1.97079e-12
3.61083e-13
6.43738e-14
4.61567e-14
8.24376e-14
1.3955e-13
1.38203e-13
1.16529e-13
8.36696e-14
5.87751e-14
4.09796e-14
2.44543e-14
1.09815e-14
6.46853e-15
6.98622e-15
1.04589e-14
8.7198e-15
3.65985e-13
1.21549e-12
2.24123e-12
2.26817e-12
1.72193e-12
6.39815e-13
1.51519e-13
2.90274e-14
5.36776e-15
3.03444e-15
4.80308e-15
9.44401e-15
1.01383e-14
8.78265e-15
6.14398e-15
3.93363e-15
2.43718e-15
1.23914e-15
5.09165e-16
4.76487e-16
6.89361e-16
1.12499e-15
9.06978e-16
3.81637e-14
1.01778e-13
2.22864e-13
2.16344e-13
1.31664e-13
4.59602e-14
1.12782e-14
2.16144e-15
4.07311e-16
2.28182e-16
3.66677e-16
7.15569e-16
7.5971e-16
6.47385e-16
4.27645e-16
2.43956e-16
1.32395e-16
5.97002e-17
2.2273e-17
1.91003e-17
2.36286e-17
6.23435e-17
8.78963e-17
3.79379e-15
8.06129e-15
1.52477e-14
1.4521e-14
9.10092e-15
3.21426e-15
7.82298e-16
1.48529e-16
2.93761e-17
1.90412e-17
3.09867e-17
5.47026e-17
5.56619e-17
4.56391e-17
2.83649e-17
1.47654e-17
7.18259e-18
2.97871e-18
8.03497e-19
5.72356e-19
2.03268e-18
2.81467e-17
7.85455e-18
3.48019e-16
6.11245e-16
1.0383e-15
9.7735e-16
6.03102e-16
2.10616e-16
5.04885e-17
9.49228e-18
2.02106e-18
1.53952e-18
2.5091e-18
3.96376e-18
3.87968e-18
3.0227e-18
1.76907e-18
8.3765e-19
3.51777e-19
1.15651e-19
2.56024e-20
7.54327e-20
1.21881e-18
1.94133e-17
5.71786e-19
2.9438e-17
4.31969e-17
6.71019e-17
6.2364e-17
3.76271e-17
1.29373e-17
3.04725e-18
5.68018e-19
1.32391e-19
1.15628e-19
1.89773e-19
2.68862e-19
2.53464e-19
1.85111e-19
9.64098e-20
3.41832e-20
8.03233e-21
1.88948e-21
2.8324e-22
2.92645e-20
6.7311e-19
9.24707e-18
8.92412e-21
2.30382e-18
2.84087e-18
4.08072e-18
3.75153e-18
2.21525e-18
7.48041e-19
1.72774e-19
3.20055e-20
8.3133e-21
8.17017e-21
1.35744e-20
1.69076e-20
1.50394e-20
8.76973e-21
2.27465e-21
2.03901e-22
-6.50203e-22
-3.14234e-21
-2.99692e-21
6.38859e-21
2.02509e-19
2.4855e-18
-5.22915e-21
1.59636e-19
1.69077e-19
2.30059e-19
2.11283e-19
1.22662e-19
4.06784e-20
9.21657e-21
1.7036e-21
5.04174e-22
5.52562e-22
9.11734e-22
9.01575e-22
4.86373e-22
6.95499e-23
-6.96528e-22
-3.38424e-21
-5.485e-21
-5.68288e-21
-4.00508e-21
-5.59438e-22
2.5964e-20
3.76972e-19
-3.22796e-20
7.34166e-21
7.54765e-21
1.08258e-20
1.04628e-20
6.16931e-21
2.01889e-21
4.50721e-22
8.20534e-23
2.89816e-23
3.56652e-23
4.53301e-23
1.44724e-23
1.35997e-24
-6.54678e-22
-2.42541e-21
-4.46096e-21
-5.31279e-21
-4.51836e-21
-2.82058e-21
-9.61481e-22
1.92558e-21
4.86397e-20
-2.47349e-20
6.36094e-23
1.1363e-22
1.67177e-22
2.00494e-22
1.77598e-22
6.53746e-23
1.50291e-23
2.85831e-24
1.48139e-24
1.53842e-24
3.23902e-25
-1.17595e-23
-2.14674e-22
-9.58227e-22
-2.26161e-21
-3.33499e-21
-3.4022e-21
-2.54979e-21
-1.43563e-21
-5.41185e-22
1.24928e-22
8.75629e-21
-1.37199e-20
-1.04784e-21
-7.37896e-22
-3.46786e-22
-2.25451e-30
0
0
-2.46828e-42
4.78596e-26
1.17859e-26
6.97469e-27
-2.19672e-24
-4.076e-23
-2.43745e-22
-7.6508e-22
-1.47928e-21
-1.89233e-21
-1.71195e-21
-1.14791e-21
-5.81744e-22
-2.10681e-22
1.44654e-23
2.04409e-21
-6.46393e-21
-1.01298e-21
-6.47002e-22
-4.70579e-22
-2.08756e-22
-6.7006e-23
-1.73109e-23
-3.42732e-24
-4.39796e-25
-3.03574e-26
-2.77481e-25
-4.6136e-24
-4.02287e-23
-1.78619e-22
-4.6607e-22
-7.83368e-22
-8.90739e-22
-7.22054e-22
-4.33851e-22
-1.96356e-22
-6.43603e-23
6.51481e-24
4.43959e-22
-2.72782e-21
-5.11259e-22
-2.8144e-22
-2.059e-22
-9.69078e-23
-3.25656e-23
-8.4863e-24
-1.69859e-24
-2.45397e-25
-5.3019e-26
-4.43264e-25
-4.34801e-24
-2.82398e-23
-1.04552e-22
-2.37935e-22
-3.55637e-22
-3.62937e-22
-2.64223e-22
-1.41789e-22
-5.67577e-23
-1.62824e-23
1.65827e-24
6.67842e-23
-1.05556e-21
-2.07566e-22
-9.90779e-23
-7.12397e-23
-3.33108e-23
-1.10007e-23
-2.79561e-24
-5.49985e-25
-8.35924e-26
-4.37064e-26
-3.92432e-25
-3.02218e-24
-1.62486e-23
-5.24167e-23
-1.06289e-22
-1.42822e-22
-1.31309e-22
-8.57358e-23
-4.08581e-23
-1.43163e-23
-3.50799e-24
4.9196e-26
5.80175e-24
-3.79275e-22
-7.50459e-23
-3.13928e-23
-2.2096e-23
-1.00935e-23
-3.22593e-24
-7.9067e-25
-1.51102e-25
-2.48589e-26
-3.07939e-26
-2.64966e-25
-1.73404e-24
-8.07735e-24
-2.32327e-23
-4.25062e-23
-5.17087e-23
-4.29395e-23
-2.51209e-23
-1.05896e-23
-3.22465e-24
-6.63987e-25
-1.66484e-26
2.87085e-25
-1.27464e-22
-2.49432e-23
-9.27954e-24
-6.40577e-24
-2.82396e-24
-8.61212e-25
-2.00565e-25
-3.66298e-26
-7.24444e-27
-1.91731e-26
-1.52119e-25
-8.76371e-25
-3.62332e-24
-9.40116e-24
-1.55848e-23
-1.71432e-23
-1.27646e-23
-6.60005e-24
-2.41105e-24
-6.19115e-25
-1.01087e-25
-2.73059e-27
5.98915e-27
0.998477
0.998479
0.998479
0.998479
0.743849
0.899449
0.972628
0.963223
0.231031
0.603881
0.833128
0.921389
0.895969
0.904443
0.910805
0.913924
0.844809
0.723252
0.660473
0.814039
0.0133128
0.0130241
0.112153
0.542756
0.00758457
0.00876713
0.0130241
0.0416328
0.00740088
0.00810267
0.0103674
0.0167689
0.00750394
0.00835573
0.0148112
0.0193357
0.00835631
0.0168893
0.126907
0.183593
0.0183935
0.0328399
0.246252
0.332991
0.000285477
0.000276351
0.000254384
0.0287227
0.000234884
0.000254816
0.000229697
0.000221525
0.000852212
0.000584429
0.000668152
0.000389297
0.00098467
0.00100056
0.0010098
0.0010098
0.000817117
0.000579537
0.000678942
0.000914283
0.000794062
0.000319464
1.20209e-05
1.81254e-06
0.000341422
0.000225593
1.43256e-07
5.64448e-11
4.12002e-12
4.20924e-12
4.2534e-12
4.36282e-12
3.99043e-12
4.11653e-12
4.24579e-12
4.27917e-12
3.96235e-12
4.24959e-12
4.88506e-12
5.96579e-12
4.06859e-12
4.68459e-12
5.61845e-12
7.09701e-12
1.41785e-12
1.84139e-12
3.28672e-12
4.11249e-12
3.73969e-13
3.98614e-13
4.90813e-13
6.99282e-13
1.23727e-13
1.33122e-13
1.6563e-13
2.45261e-13
4.98579e-14
6.21369e-14
8.27545e-14
1.15621e-13
1.4779e-14
1.79076e-14
2.10915e-14
2.2056e-14
1.44624e-15
1.61893e-15
1.89533e-15
2.32611e-15
1.38321e-16
2.52316e-16
5.2027e-16
9.51067e-16
8.55468e-17
1.75696e-16
3.85197e-16
7.1014e-16
5.75678e-17
1.13905e-16
2.37883e-16
3.99264e-16
2.58781e-17
4.85723e-17
9.54218e-17
1.4825e-16
6.64984e-18
1.20883e-17
2.28494e-17
3.41481e-17
1.02216e-18
1.88286e-18
3.57947e-18
5.35384e-18
1.398e-19
2.66031e-19
5.21314e-19
7.99461e-19
2.57703e-20
4.90762e-20
9.42983e-20
1.4746e-19
5.82519e-21
1.03714e-20
1.9277e-20
3.42683e-20
1.14462e-21
1.83659e-21
4.41237e-21
1.10568e-20
1.47346e-22
2.45944e-22
9.97267e-22
2.88856e-21
1.13614e-23
2.60241e-23
1.21386e-22
7.31259e-22
5.52497e-25
1.84656e-24
1.4844e-23
8.36995e-22
1.17423e-26
5.43732e-26
1.79362e-24
5.18594e-22
0.998409
0.99053
0.970788
0.777989
0.883493
0.204437
0.0498806
0.11584
0.331905
0.297887
0.121893
0.287238
0.637366
0.678613
0.493644
0.321816
0.262303
0.523965
0.84144
0.997983
0.934792
0.719454
0.777545
0.679378
0.0396099
0.0911933
0.331904
0.331904
0.331905
0.331672
0.328458
0.146054
0.00363564
0.000585417
0.000931196
0.00184818
0.021587
0.390379
0.954539
0.843416
0.7194
0.757825
0.375479
0.0238945
0.138761
0.185875
0.0268743
0.0345764
0.0446358
0.0194508
0.000869371
0.000322851
0.000432857
0.000582942
0.00093036
0.00186634
0.00479852
0.921799
0.89775
0.876616
0.544131
0.027278
0.0200831
0.079809
0.0104558
0.000335599
0.00027653
0.000306569
0.000310151
0.000263801
0.000228575
0.000364252
0.000434553
0.000733772
0.014824
0.0411227
0.900325
0.897227
0.860697
0.26776
0.00183055
0.000674785
0.00171789
0.000334863
0.000220996
0.000210151
0.000210393
0.000212865
0.00020745
0.000220023
0.000232009
0.000342637
0.00176289
0.0182253
0.0591599
0.834781
0.890843
0.760638
0.0641754
0.000558318
0.000307743
0.000315892
0.000221959
0.000205256
0.000203195
0.000203043
0.000205684
0.000208572
0.00020854
0.00022003
0.00444711
0.00570816
0.0120987
0.059195
0.434547
0.882938
0.762329
0.123312
0.000307773
0.000245688
0.00022418
0.000205256
0.000203101
0.000203032
0.000205708
0.00020443
0.000205904
0.00021135
0.000305061
0.0975128
0.0855149
0.00773872
0.0582051
0.118956
0.666088
0.779758
0.605504
0.000245688
0.000226809
0.000207886
0.000203172
0.000203172
0.000210882
0.000844534
0.000784623
0.000211384
0.000251293
0.0704869
0.143902
0.135769
0.00586952
0.0258279
0.030975
0.21748
0.68611
0.693952
0.507055
0.000245686
0.000223215
0.000204291
0.000203172
0.000338453
0.000844735
0.000528533
0.000251617
0.000402532
0.143669
0.143902
0.085059
0.00178285
0.000220016
0.167963
0.139745
0.141376
0.573346
0.651124
0.429202
0.0012119
0.000223419
0.000204289
0.000315654
0.000333447
0.000337005
0.000401098
0.0856651
0.140797
0.143902
0.0190026
0.000128234
7.49768e-05
0.337274
0.337257
0.297425
0.299768
0.411371
0.611191
0.195149
0.000879936
0.000268745
0.00033092
0.000336888
0.000365602
0.00147535
0.148411
0.141073
0.0534168
0.000121569
1.33757e-05
6.94032e-05
0.156993
0.337857
0.533397
0.60854
0.611256
0.611157
0.611157
0.39224
0.241981
0.0576584
0.00278702
0.0373709
0.202504
0.149425
0.0428024
0.000121554
1.27431e-05
6.8956e-06
6.95269e-06
0.00011514
8.38184e-06
2.70435e-05
0.138427
0.535031
0.611214
0.610642
0.609733
0.603554
0.49459
0.492248
0.492585
0.4786
0.0546337
0.000173091
1.01114e-05
6.04766e-06
6.28139e-06
6.7649e-06
0.000145673
4.46793e-06
4.54835e-07
4.30024e-07
7.37507e-07
0.170042
0.482774
0.537834
0.526691
0.540453
0.540453
0.447164
0.046533
5.09352e-06
7.00876e-08
8.54612e-09
4.91286e-06
6.08893e-06
6.28139e-06
0.0010098
3.03838e-06
4.3001e-07
4.06383e-07
2.95026e-07
1.42895e-07
4.2711e-06
0.0149136
0.0579888
0.159019
0.0900705
-8.09669e-08
-5.22385e-09
-3.89785e-08
1.72942e-09
1.62705e-09
5.6892e-06
7.05039e-06
6.81815e-06
0.000995741
0.000131527
2.77516e-07
4.00808e-07
4.50494e-07
1.4631e-07
2.43046e-08
1.64126e-09
2.7793e-10
1.93158e-11
0
-9.14321e-10
-1.15579e-09
-1.18745e-10
-1.72321e-10
9.04985e-10
6.71809e-06
6.96735e-06
7.93148e-06
0.000352682
0.000156632
1.18713e-07
6.65699e-08
4.05368e-07
4.02375e-07
4.543e-08
5.09072e-10
4.40509e-10
4.32667e-10
4.87259e-10
5.40838e-10
2.44445e-10
0
4.69646e-08
1.78731e-09
2.09611e-06
2.36258e-06
4.55893e-05
1.0148e-11
1.0534e-11
6.91464e-07
5.93591e-08
6.37735e-08
8.13851e-08
3.41796e-08
6.75455e-10
5.58414e-10
5.86846e-10
7.89014e-10
8.13943e-10
2.46802e-10
5.74626e-09
5.55629e-08
9.82609e-09
3.8722e-06
0.000282111
0.000187914
6.09328e-12
9.65221e-12
1.0534e-11
1.07702e-11
1.10905e-11
1.16163e-11
4.49509e-09
4.90039e-09
1.26566e-09
6.36687e-10
8.34423e-10
8.53673e-10
4.79149e-10
4.21673e-10
3.0004e-08
1.35156e-08
4.22938e-05
0.000693347
9.78431e-05
7.08871e-12
2.22165e-11
1.85337e-11
1.9935e-11
3.67306e-11
7.62987e-11
7.62679e-11
1.14231e-10
3.04342e-10
4.30848e-10
5.7432e-10
6.2263e-10
5.65773e-10
4.17331e-10
4.18426e-10
4.18426e-10
0.000107688
0.000695633
4.51339e-06
2.83364e-11
4.82485e-11
4.05022e-11
3.82097e-11
7.62501e-11
1.80176e-10
3.20233e-10
4.86549e-10
5.49367e-10
5.43142e-10
5.43323e-10
6.01563e-10
6.73231e-10
4.6555e-10
4.1733e-10
4.18426e-10
0.000161382
0.000691023
1.53107e-06
2.74523e-11
4.32875e-11
3.1258e-11
2.79903e-11
5.54734e-11
1.75332e-10
5.55381e-10
7.04387e-10
6.71407e-10
6.20718e-10
6.07744e-10
9.13698e-10
1.09833e-09
7.38846e-10
4.21743e-10
4.30572e-10
0.000242623
0.000388862
1.42811e-06
3.91723e-12
4.2606e-12
5.26254e-12
1.34072e-11
4.70579e-11
2.16094e-10
7.37687e-10
7.32117e-10
6.82136e-10
6.33775e-10
8.67837e-10
1.6823e-09
1.51631e-09
9.17479e-10
4.46155e-10
5.25734e-10
0.000333635
1.80784e-06
1.38282e-06
1.50919e-12
2.1962e-12
4.32418e-12
2.47208e-11
8.34487e-11
2.91071e-10
6.2493e-10
6.04638e-10
8.67152e-10
8.64582e-10
6.81831e-09
2.9735e-09
1.64348e-09
7.2148e-10
4.64164e-10
4.72542e-10
0.000332886
2.34545e-05
4.12619e-07
4.79612e-13
7.41881e-13
4.40509e-12
4.11132e-11
1.15372e-10
2.93346e-10
1.59119e-11
2.57486e-11
4.16943e-09
1.01606e-07
2.06332e-08
1.43386e-09
1.04389e-09
5.73157e-10
4.72542e-10
4.76141e-10
0.000131602
2.23683e-05
1.69432e-07
1.41475e-13
3.12515e-13
5.53126e-12
5.45648e-11
1.28459e-10
1.4743e-10
1.14146e-11
3.79038e-07
1.81224e-06
3.94548e-07
1.02401e-09
8.60352e-10
7.038e-10
5.03575e-10
4.7628e-10
2.02624e-06
2.70475e-07
1.69432e-07
1.65367e-07
2.62099e-14
2.39616e-13
5.56327e-12
5.79037e-11
1.05716e-10
5.94613e-11
1.09474e-11
3.75418e-06
4.48672e-06
3.50585e-07
4.96031e-09
4.62022e-09
7.50343e-10
5.37585e-08
9.50544e-06
1.76132e-05
5.45439e-06
1.29435e-06
1.0711e-07
8.08322e-15
2.61962e-13
3.8915e-12
3.83597e-11
6.77044e-11
3.55597e-11
1.07672e-11
4.4826e-06
4.4963e-06
1.94113e-08
5.13368e-09
6.1919e-09
3.3912e-06
1.36521e-05
1.41279e-05
1.45645e-05
1.07158e-05
5.08594e-06
4.44424e-08
5.76576e-15
2.2575e-13
3.59311e-12
2.7597e-11
4.62e-11
2.70917e-11
1.06794e-11
4.45944e-06
4.49138e-06
2.15604e-07
8.30335e-09
1.30808e-07
5.45542e-06
8.32603e-06
4.15125e-06
4.51542e-06
1.17316e-05
4.15263e-06
6.21152e-09
3.61589e-15
2.23707e-13
3.15264e-12
2.25509e-11
3.70922e-11
2.36969e-11
1.05944e-11
1.8756e-06
4.47841e-06
3.79226e-06
1.01583e-06
9.83437e-07
1.31762e-06
7.68491e-08
8.3619e-07
1.1951e-05
1.18992e-05
7.21721e-07
1.79387e-09
3.21445e-15
2.38201e-13
2.81369e-12
1.58221e-11
2.92401e-11
2.20172e-11
1.05374e-11
4.94562e-12
4.20326e-06
4.73788e-06
4.42998e-06
1.63354e-06
2.84939e-07
7.68123e-08
9.36569e-06
1.19573e-05
8.49208e-06
1.62793e-07
5.47078e-10
3.38051e-15
1.78556e-13
1.66245e-12
7.62486e-12
1.62405e-11
1.70063e-11
1.04714e-11
4.9259e-12
2.43187e-07
4.28992e-06
4.6991e-06
4.6991e-06
1.02872e-06
5.62441e-08
1.18844e-05
1.19571e-05
2.78888e-06
5.47078e-10
3.28397e-10
2.49204e-15
7.76183e-14
5.65423e-13
2.18942e-12
5.90219e-12
1.0345e-11
1.00199e-11
4.91889e-12
4.9259e-12
3.00766e-09
3.63222e-06
4.59368e-06
1.57617e-06
3.2694e-08
9.12306e-06
1.19572e-05
2.49088e-06
2.20099e-10
9.48119e-11
7.17912e-16
1.97546e-14
1.05855e-13
4.62134e-13
2.35262e-12
6.88942e-12
8.28374e-12
4.36111e-12
6.90599e-12
3.19714e-11
8.49243e-11
6.12173e-07
2.89694e-07
1.87057e-08
4.94849e-06
5.58222e-06
5.21068e-07
5.51642e-11
4.92028e-11
7.46063e-17
2.38807e-15
1.40591e-14
2.01479e-13
1.68259e-12
4.88783e-12
4.87931e-12
6.45109e-15
5.58039e-10
6.61258e-09
1.67475e-09
9.07331e-10
9.07331e-10
2.81009e-09
1.87817e-06
7.18264e-10
5.51642e-11
4.33951e-11
4.84983e-11
1.01544e-17
3.25637e-16
3.97527e-15
1.54465e-13
1.2227e-12
2.02906e-12
1.34159e-12
0
3.54673e-09
1.86511e-08
1.25783e-08
9.15608e-10
1.2485e-09
2.4871e-06
1.13527e-06
2.55159e-07
5.75329e-11
3.87922e-11
3.79813e-11
4.58539e-18
8.87806e-17
1.75768e-15
7.23752e-14
3.55605e-13
3.34381e-13
1.05181e-31
-2.50222e-13
5.13637e-09
1.86598e-08
1.25308e-08
1.03894e-09
2.47492e-06
4.65963e-06
1.6088e-06
1.32336e-10
3.3389e-11
5.18318e-11
1.41318e-11
2.07287e-18
1.98773e-17
3.84156e-16
1.40933e-14
3.37328e-14
8.56007e-15
-1.78422e-13
-3.66301e-13
7.06111e-10
1.16103e-08
6.31736e-10
1.57753e-08
4.70975e-06
4.69522e-06
9.95056e-07
1.55541e-11
8.30935e-14
2.27216e-11
2.60601e-12
6.0343e-19
2.47759e-18
2.43296e-17
8.3188e-16
-7.76159e-16
-1.28708e-14
-1.7079e-13
-2.6058e-13
-7.00976e-14
-6.6948e-15
-5.26013e-16
2.83143e-07
4.70975e-06
1.75137e-06
1.28206e-11
6.28097e-14
4.27144e-15
6.55072e-13
1.46877e-13
9.57391e-20
1.66056e-19
4.29091e-19
4.1386e-18
-1.92259e-15
-8.27615e-15
-8.93564e-14
-1.07787e-13
-4.33449e-14
-8.63736e-15
-9.96013e-16
2.12395e-07
4.70958e-06
1.28186e-11
6.07076e-14
2.10209e-15
3.70823e-15
1.80393e-14
8.14677e-15
6.93243e-21
5.46716e-21
7.67902e-21
-3.92062e-19
-1.08038e-15
-3.09468e-15
-2.28565e-14
-1.86708e-14
-6.1438e-15
-1.10048e-15
-1.15963e-16
1.57937e-08
7.80272e-07
1.0054e-07
-3.66591e-15
-1.3229e-17
3.04507e-17
-6.05186e-36
0
3.01844e-22
9.99653e-23
2.74332e-23
-3.02496e-19
-2.85619e-16
-5.87743e-16
-1.8075e-15
-5.603e-16
-9.06928e-17
-1.28031e-17
-1.32573e-18
-1.45024e-20
-8.11845e-24
-8.5121e-18
-1.74735e-18
-5.11524e-20
-6.94262e-22
-4.79491e-24
-1.0888e-26
)
;

boundaryField
{
    leftWall
    {
        type            zeroGradient;
    }
    rightWall
    {
        type            zeroGradient;
    }
    lowerWall
    {
        type            zeroGradient;
    }
    atmosphere
    {
        type            inletOutlet;
        inletValue      uniform 0;
        value           nonuniform List<scalar> 
46
(
-1.27464e-22
-2.49432e-23
-9.27954e-24
-6.40577e-24
-2.82396e-24
-8.61212e-25
-2.00565e-25
-3.66298e-26
-7.24444e-27
-1.91731e-26
-1.52119e-25
-8.76371e-25
-3.62332e-24
-9.40116e-24
-1.55848e-23
-1.71432e-23
-1.27646e-23
-6.60005e-24
-2.41105e-24
-6.19115e-25
-1.01087e-25
-2.73059e-27
5.98915e-27
1.17423e-26
5.43732e-26
0
0
0
0
0
0
0
0
0
0
0
0
0
0
0
0
0
0
0
0
0
)
;
    }
    defaultFaces
    {
        type            empty;
    }
}


// ************************************************************************* //
