/*--------------------------------*- C++ -*----------------------------------*\
| =========                 |                                                 |
| \\      /  F ield         | OpenFOAM: The Open Source CFD Toolbox           |
|  \\    /   O peration     | Version:  2206                                  |
|   \\  /    A nd           | Website:  www.openfoam.com                      |
|    \\/     M anipulation  |                                                 |
\*---------------------------------------------------------------------------*/
FoamFile
{
    version     2.0;
    format      ascii;
    arch        "LSB;label=32;scalar=64";
    class       surfaceScalarField;
    location    "0.875";
    object      alphaPhi0.water;
}
// * * * * * * * * * * * * * * * * * * * * * * * * * * * * * * * * * * * * * //

dimensions      [0 3 -1 0 0 0 0];

oriented        oriented;

internalField   nonuniform List<scalar> 
4432
(
-2.39948e-06
2.39948e-06
-6.51045e-06
4.11097e-06
-1.21419e-05
5.63144e-06
-1.79405e-05
5.79861e-06
-2.09291e-05
2.98862e-06
-2.02583e-05
-6.70872e-07
-1.8284e-05
-1.9743e-06
-1.67473e-05
-1.53669e-06
-1.56274e-05
-1.11983e-06
-1.47271e-05
-9.00365e-07
-1.4195e-05
-5.32082e-07
-1.41563e-05
-3.87159e-08
-1.43825e-05
2.26184e-07
-1.42966e-05
-8.58344e-08
-1.36585e-05
-5.04294e-07
-1.47431e-05
1.38056e-06
-2.03492e-05
5.0057e-06
-2.62065e-05
5.88305e-06
-2.67238e-05
5.51846e-07
-2.13299e-05
-5.08015e-06
-1.38936e-05
-7.306e-06
-6.11653e-06
-7.8213e-06
-6.13989e-06
-7.30549e-06
9.70497e-06
-1.45644e-05
1.13699e-05
-2.06457e-05
1.17127e-05
-2.38866e-05
9.0395e-06
-2.35848e-05
2.68686e-06
-2.13472e-05
-2.90852e-06
-1.89318e-05
-4.38966e-06
-1.713e-05
-3.33852e-06
-1.58134e-05
-2.43645e-06
-1.45885e-05
-2.12527e-06
-1.34889e-05
-1.63167e-06
-1.28513e-05
-6.7632e-07
-1.31006e-05
4.75507e-07
-1.4666e-05
1.47969e-06
-1.73849e-05
2.58319e-06
-2.05884e-05
5.22813e-06
-2.3437e-05
7.74936e-06
-2.27897e-05
4.86524e-06
-1.80459e-05
-4.22851e-06
-1.23831e-05
-1.08353e-05
-7.68972e-06
-1.20917e-05
-3.17286e-06
-1.25685e-05
-9.31277e-06
-8.33499e-06
1.80399e-05
-1.55051e-05
1.854e-05
-2.09146e-05
1.71222e-05
-2.39873e-05
1.21122e-05
-2.43351e-05
3.03469e-06
-2.2466e-05
-4.77762e-06
-2.00172e-05
-6.83846e-06
-1.80829e-05
-5.27286e-06
-1.6498e-05
-4.02133e-06
-1.48913e-05
-3.73192e-06
-1.32479e-05
-3.27508e-06
-1.1799e-05
-2.12527e-06
-1.0852e-05
-4.71499e-07
-1.08754e-05
1.50315e-06
-1.23737e-05
4.09639e-06
-1.39297e-05
7.35221e-06
-1.36939e-05
8.11707e-06
-1.1011e-05
2.14259e-06
-7.0428e-06
-8.23642e-06
-3.49222e-06
-1.50721e-05
-1.31227e-06
-1.49712e-05
5.99209e-09
-1.39796e-05
-9.30679e-06
-7.53602e-06
2.5576e-05
-1.39997e-05
2.50037e-05
-1.92605e-05
2.2383e-05
-2.27973e-05
1.5649e-05
-2.37157e-05
3.95311e-06
-2.24893e-05
-6.00405e-06
-2.08122e-05
-8.51555e-06
-1.93304e-05
-6.75466e-06
-1.77448e-05
-5.60688e-06
-1.59541e-05
-5.52264e-06
-1.41388e-05
-5.0904e-06
-1.25298e-05
-3.73421e-06
-1.12122e-05
-1.78914e-06
-1.00994e-05
3.90355e-07
-9.09506e-06
3.09205e-06
-7.70247e-06
5.95973e-06
-5.33222e-06
5.95073e-06
-3.05825e-06
-5.01677e-08
-1.27959e-06
-1.02806e-05
3.51466e-07
-1.67031e-05
1.20307e-06
-1.58228e-05
1.31339e-06
-1.40899e-05
-7.99349e-06
-6.10973e-06
3.16857e-05
-1.1687e-05
3.0581e-05
-1.64427e-05
2.71387e-05
-1.97256e-05
1.89318e-05
-2.09264e-05
5.15398e-06
-2.08872e-05
-6.04331e-06
-2.08628e-05
-8.53993e-06
-2.05019e-05
-7.11559e-06
-1.91803e-05
-6.92848e-06
-1.71132e-05
-7.5897e-06
-1.49146e-05
-7.28903e-06
-1.30778e-05
-5.57096e-06
-1.17115e-05
-3.15548e-06
-1.05553e-05
-7.6588e-07
-9.18826e-06
1.72504e-06
-7.07709e-06
3.84856e-06
-4.51469e-06
3.38828e-06
-2.63506e-06
-1.92981e-06
-1.80891e-06
-1.11067e-05
-3.32302e-07
-1.81797e-05
1.03738e-06
-1.71925e-05
1.52223e-06
-1.45748e-05
-6.47128e-06
-4.31425e-06
3.6e-05
-8.69367e-06
3.49604e-05
-1.24033e-05
3.08483e-05
-1.50096e-05
2.15381e-05
-1.65629e-05
6.70731e-06
-1.81752e-05
-4.43102e-06
-2.0417e-05
-6.2981e-06
-2.15785e-05
-5.95413e-06
-2.05604e-05
-7.94655e-06
-1.78466e-05
-1.03036e-05
-1.47272e-05
-1.04084e-05
-1.23145e-05
-7.98362e-06
-1.08506e-05
-4.61938e-06
-9.92109e-06
-1.69543e-06
-9.06774e-06
8.71694e-07
-7.91543e-06
2.69624e-06
-6.50453e-06
1.97738e-06
-5.21478e-06
-3.21956e-06
-3.63281e-06
-1.26887e-05
-6.67699e-07
-2.11449e-05
2.10969e-06
-1.99699e-05
2.49233e-06
-1.49574e-05
-3.97896e-06
-2.24732e-06
3.82473e-05
-5.45345e-06
3.81665e-05
-8.05104e-06
3.34459e-05
-9.68761e-06
2.31747e-05
-1.13977e-05
8.41739e-06
-1.51865e-05
-6.40899e-07
-2.00898e-05
-1.39225e-06
-2.23662e-05
-3.67768e-06
-2.07396e-05
-9.57318e-06
-1.64352e-05
-1.46079e-05
-1.19919e-05
-1.48517e-05
-9.06648e-06
-1.09091e-05
-7.70135e-06
-5.98454e-06
-7.20331e-06
-2.19347e-06
-6.99819e-06
6.66574e-07
-6.98405e-06
2.68209e-06
-6.85673e-06
1.85006e-06
-6.06879e-06
-4.0075e-06
-3.3146e-06
-1.54428e-05
1.30851e-06
-2.57676e-05
5.41333e-06
-2.40744e-05
4.80268e-06
-1.43469e-05
8.23755e-07
-1.89727e-07
3.8437e-05
-1.65218e-06
3.9629e-05
-2.15555e-06
3.39493e-05
-1.59531e-06
2.26144e-05
-4.12743e-06
1.09501e-05
-1.20329e-05
7.27418e-06
-1.98168e-05
6.3394e-06
-2.22425e-05
-1.25097e-06
-1.93339e-05
-1.24816e-05
-1.43002e-05
-1.96403e-05
-1.01788e-05
-1.89734e-05
-7.51397e-06
-1.35769e-05
-5.9843e-06
-7.51611e-06
-5.25752e-06
-2.92152e-06
-4.84033e-06
2.4938e-07
-5.28599e-06
3.12775e-06
-6.22565e-06
2.78973e-06
-5.7913e-06
-4.44182e-06
-2.6761e-06
-1.85573e-05
2.97831e-06
-3.14123e-05
9.16255e-06
-3.02501e-05
7.73253e-06
-1.29189e-05
8.54376e-06
-9.44574e-06
9.5941e-06
-2.98848e-05
2.03932e-05
-3.07737e-05
6.65348e-07
-9.38243e-06
-2.16826e-05
1.2955e-05
-2.26211e-05
1.99505e-05
-7.72748e-06
6.61884e-06
1.16996e-05
-1.39101e-05
1.89333e-05
-1.19078e-05
-1.96137e-06
1.44803e-06
-1.45762e-05
7.11211e-06
-4.43692e-06
7.42001e-06
-3.40486e-07
1.41634e-06
5.98124e-06
-1.1229e-05
9.98318e-06
-2.50501e-05
1.38317e-05
-3.29761e-05
7.93358e-06
-3.10281e-05
-2.24815e-06
-1.89897e-05
-1.29607e-05
-1.89013e-05
-2.07948e-05
3.06276e-05
-3.28732e-05
3.27307e-05
-2.53675e-05
-6.01243e-06
-8.51338e-06
-3.59e-05
4.51369e-06
-3.56394e-05
-1.82187e-06
-1.38319e-06
-1.61199e-05
2.50257e-05
-1.24177e-05
1.27195e-05
-8.65848e-06
-3.46513e-06
-6.24898e-06
-1.51681e-05
3.96759e-06
-1.76537e-05
7.19504e-06
-4.57701e-06
5.05523e-06
8.09452e-06
-1.70929e-06
2.01226e-05
-1.71207e-05
2.56081e-05
-3.19497e-05
1.6974e-05
-2.85613e-05
-6.275e-06
-1.01246e-05
-3.16029e-05
-2.87018e-05
-1.95751e-05
5.04388e-05
-2.34827e-05
3.78141e-05
-1.66557e-05
-8.98831e-06
-1.17933e-05
-3.9451e-05
-1.32694e-05
-3.41546e-05
-2.52125e-05
1.05485e-05
-1.90164e-05
1.75386e-05
-9.26268e-06
1.89056e-06
-1.11844e-05
7.57639e-07
-3.52491e-05
-8.71997e-06
-2.16461e-05
-3.12765e-05
-7.67873e-06
-1.85157e-05
-2.68267e-06
4.43465e-06
-4.11306e-06
2.17433e-05
-8.00005e-06
2.92241e-05
-1.152e-05
2.02367e-05
-1.22558e-05
-8.29044e-06
8.28186e-07
-4.43628e-05
-1.41528e-05
-1.43241e-05
6.50117e-05
-1.47778e-05
3.9036e-05
-1.24811e-05
-1.20795e-05
-1.16575e-05
-4.60245e-05
-1.97703e-05
-2.60361e-05
-2.67063e-05
1.89235e-05
-8.01608e-06
6.37028e-06
-5.83161e-06
3.16651e-06
-8.77871e-06
1.37442e-06
-4.49969e-05
-4.89238e-06
-5.85086e-05
-5.31827e-05
-3.59101e-05
-4.10409e-05
-1.95155e-05
-1.1903e-05
-1.3869e-05
1.61684e-05
-9.54055e-06
2.88652e-05
-6.20789e-06
1.66348e-05
-3.35666e-06
-1.19966e-05
1.63333e-07
-2.87222e-05
-1.49987e-05
-7.84627e-06
7.30011e-05
-8.71691e-06
3.88639e-05
-7.27682e-06
-1.43296e-05
-8.40012e-06
-4.44837e-05
-1.86714e-05
-1.57523e-05
-1.44821e-05
2.07571e-05
-4.27352e-06
7.19602e-06
-5.30042e-06
3.98557e-06
-7.32258e-06
2.99045e-06
-4.20453e-05
-2.06707e-07
-8.60608e-05
-4.65157e-05
-6.99933e-05
-5.70658e-05
-4.56803e-05
-3.61399e-05
-2.98045e-05
3.28659e-07
-2.22885e-05
2.13855e-05
-1.62968e-05
1.07868e-05
-5.73932e-06
-1.24742e-05
-3.68319e-06
-3.2156e-05
-1.96753e-05
-1.78053e-06
7.49267e-05
-1.06677e-06
3.73632e-05
1.73126e-06
-1.78858e-05
-4.14597e-06
-3.42169e-05
-1.60692e-05
-3.91177e-06
-4.53065e-06
1.93478e-05
-3.23668e-06
5.69421e-06
-3.85714e-06
4.45777e-06
-4.34738e-06
3.30039e-06
-1.11317e-05
1.22378e-06
-7.77194e-05
-9.49465e-06
-9.17383e-05
-5.37121e-05
-7.47439e-05
-5.30963e-05
-5.28676e-05
-2.15114e-05
-3.92602e-05
7.8984e-06
-2.23993e-05
2.60964e-06
-1.337e-05
-2.69425e-05
-3.44662e-06
-5.83237e-05
-3.62834e-05
3.95651e-06
7.03547e-05
8.5038e-06
4.11806e-05
1.03144e-05
-2.32253e-05
-3.8343e-07
-2.63329e-05
-1.48043e-05
1.11658e-05
-2.37751e-06
1.97913e-05
-3.17699e-06
6.34539e-06
-3.11685e-06
4.24936e-06
-2.06114e-06
2.09642e-06
-3.09205e-06
2.07439e-06
-1.55878e-05
1.40798e-07
-7.72825e-05
-2.53079e-05
-7.72896e-05
-5.34443e-05
-6.36321e-05
-3.60172e-05
-4.95493e-05
-1.03288e-05
-3.12797e-05
-1.98046e-05
-1.85217e-05
-5.45041e-05
-2.24986e-06
-7.96357e-05
-3.81797e-05
1.02178e-05
6.11451e-05
1.78659e-05
3.31743e-05
1.82645e-05
-2.39387e-05
1.39443e-06
-1.24887e-05
-1.50534e-05
2.93721e-05
-2.93846e-06
2.10223e-05
-4.11543e-06
7.46453e-06
-4.34459e-06
4.33025e-06
-3.71563e-06
2.35784e-06
-2.27849e-06
4.9632e-06
-7.57191e-06
2.94092e-06
-3.97203e-05
-1.32446e-05
-5.45888e-05
-5.80737e-05
-5.38811e-05
-3.8349e-05
-4.22348e-05
-2.09315e-05
-3.33446e-05
-2.54555e-05
-2.35793e-05
-5.2678e-05
-5.06371e-06
-9.77297e-05
-4.29237e-05
1.33967e-05
2.50403e-05
1.43843e-05
3.86415e-05
1.21089e-05
3.62247e-05
1.40944e-06
3.33139e-05
-1.90499e-05
3.14098e-05
-3.95463e-05
2.7771e-05
-5.08345e-05
1.76357e-05
-5.62248e-05
4.14193e-06
-5.71139e-05
-1.15814e-05
-5.31242e-05
-1.60527e-05
-4.60814e-05
-1.19964e-05
-3.94722e-05
-1.02262e-05
-3.24891e-05
-7.73526e-06
-2.53826e-05
-5.65826e-06
-2.04263e-05
-3.04904e-06
-1.92253e-05
5.50507e-07
-2.16615e-05
3.45391e-06
-2.54514e-05
-7.88443e-07
-2.30975e-05
-2.03258e-05
-1.91452e-06
-4.15957e-05
2.40432e-05
-3.91929e-05
2.79648e-05
-8.4981e-06
1.42066e-05
2.25935e-05
1.18735e-05
1.08451e-05
6.20767e-06
4.43073e-05
-7.97019e-06
4.28806e-05
-2.01711e-05
3.85985e-05
-3.51206e-05
3.50806e-05
-5.3578e-05
3.55106e-05
-7.30101e-05
3.70772e-05
-0.000101209
3.23569e-05
-9.55258e-05
1.11829e-05
-4.45794e-05
-3.08038e-06
-2.22881e-05
-5.99368e-06
-1.7482e-05
-1.4006e-06
-1.52823e-05
-6.74565e-07
-1.29127e-05
-9.51903e-07
-1.23332e-05
-1.22323e-06
-2.88121e-05
-1.74228e-07
-6.26416e-05
1.65863e-06
-6.97618e-05
-1.90627e-06
-4.41249e-05
-2.60107e-05
-7.75718e-06
-4.7457e-05
6.01788e-06
-2.95465e-05
1.04295e-05
-2.37277e-06
4.69491e-06
2.2988e-05
-2.60379e-05
2.98951e-05
-3.98933e-05
2.81444e-05
-7.04528e-05
4.27235e-05
-0.000121303
5.70189e-05
-0.000148485
7.09885e-05
-0.000166173
6.19757e-05
-0.000100974
2.61168e-05
-3.75972e-05
-7.19523e-08
-2.69476e-05
-5.98056e-08
-2.4917e-05
-6.01774e-06
-8.00205e-06
-7.70565e-06
-5.24584e-06
-4.6568e-06
-5.74726e-06
-7.45151e-07
-7.39571e-06
1.24943e-07
-9.57961e-06
1.27187e-07
-1.8582e-05
3.87266e-08
-3.42301e-05
-1.8437e-06
-3.30816e-05
-1.09909e-05
-2.41485e-05
-3.37692e-05
-1.25788e-05
-5.20877e-05
-3.91917e-06
-2.00088e-05
-5.29533e-06
-2.11392e-06
3.68354e-06
-5.48345e-06
-9.46909e-05
0.000108618
-0.000145649
4.73746e-05
-0.000197592
6.81148e-05
-0.000232015
5.95772e-05
-0.000162461
3.1965e-05
-8.33734e-05
5.48727e-06
-4.33216e-05
4.13929e-07
-3.90348e-05
6.20749e-09
-4.42851e-05
-8.14201e-07
-4.13645e-05
-6.39768e-06
-3.64831e-05
-1.03687e-05
-2.95348e-05
-1.0076e-05
-6.8871e-06
-5.32703e-06
-5.36531e-06
-2.05714e-06
-5.37039e-06
-6.83693e-07
-5.43356e-06
-4.34279e-07
-4.55949e-06
-3.43649e-06
-3.27365e-06
-2.52672e-05
-6.92956e-06
-3.66796e-05
-2.51349e-05
-3.66111e-05
-6.51869e-06
-1.02309e-05
-9.99097e-06
2.41064e-07
7.75764e-06
-0.000103402
-0.000119018
0.000195472
-0.000138203
3.5832e-05
-8.86147e-05
8.67113e-06
-3.89792e-05
1.70209e-06
-8.83615e-06
1.72487e-06
-4.08385e-06
7.23966e-07
-3.89879e-06
2.32776e-07
-4.09724e-06
1.77215e-07
-1.64916e-05
-1.25966e-07
-2.78921e-05
-6.91165e-07
-3.64129e-05
-2.29432e-06
-4.16704e-05
-5.4545e-06
-3.88824e-05
-5.50078e-06
-3.18919e-05
-8.93396e-06
-1.66517e-05
-7.2946e-06
-4.76389e-06
-5.18553e-06
-3.37296e-05
-7.93634e-06
-3.57871e-05
-1.67881e-05
-3.48082e-05
-3.02502e-05
-3.03354e-05
-3.37147e-05
-4.05445e-06
-1.26481e-05
-4.29777e-05
2.37765e-06
8.39494e-07
-0.000141406
-3.42933e-05
0.000159213
-9.38631e-06
9.2391e-06
-3.60343e-06
1.87411e-06
-2.55789e-06
4.47436e-07
-1.09118e-06
1.99667e-07
-4.23697e-07
5.94478e-08
-2.07091e-07
1.81664e-08
-3.67586e-08
6.38511e-09
-1.62313e-07
-2.1692e-10
-8.52594e-07
-1.73575e-09
-3.14008e-06
-7.52643e-09
-8.56572e-06
-3.14148e-08
-2.55365e-05
-1.32275e-07
-4.14754e-05
-5.48002e-07
-3.75832e-05
-8.04299e-07
-3.1955e-05
-4.31181e-07
-2.37324e-05
-3.84418e-06
-2.71467e-05
-3.79369e-06
-4.35823e-05
-1.84965e-05
-4.39973e-05
-2.58102e-05
-2.67904e-05
-9.81011e-06
-8.18437e-06
1.46679e-06
-1.54075e-07
-4.50989e-06
-9.03837e-06
3.89166e-05
-1.90905e-06
1.78028e-06
-5.84253e-07
3.73271e-07
-2.612e-07
8.55656e-08
-9.40785e-08
2.26508e-08
-2.86122e-08
-2.0937e-10
-6.05998e-09
-1.73331e-09
-1.64036e-10
4.70675e-10
-3.86304e-10
1.4477e-13
-2.11158e-09
-1.41302e-11
-9.55174e-09
-9.58627e-11
-4.05819e-08
-4.32096e-10
-1.71069e-07
-1.88783e-09
-7.11921e-07
-7.76068e-09
-2.22358e-06
-3.28895e-08
-6.45406e-07
-1.16592e-07
-1.00399e-06
-1.51517e-07
-4.28086e-06
-7.66669e-07
-2.69905e-05
-3.24274e-06
-4.5274e-05
-2.68641e-05
-3.00662e-06
-1.13468e-05
-2.05685e-06
5.20552e-07
-1.74839e-07
-2.22556e-06
-1.37097e-06
-4.45226e-07
-2.99241e-07
6.31002e-07
-8.6052e-08
1.17684e-07
-3.05181e-08
1.99144e-08
-1.27577e-08
3.144e-09
-4.9343e-09
-8.77604e-10
-3.40337e-10
-8.48861e-11
-1.84324e-11
1.43311e-10
-2.461e-11
1.55295e-12
-4.02792e-11
-1.54679e-12
-1.34919e-10
-4.56318e-12
-5.52131e-10
-2.55715e-11
-2.31704e-09
-1.55923e-10
-9.3816e-09
-8.46624e-10
-3.83258e-08
-4.58643e-09
-1.35288e-07
-2.20746e-08
-2.16744e-07
-7.99127e-08
-6.60884e-07
-3.68711e-07
-4.46062e-06
-1.51107e-06
-3.36815e-05
-1.53115e-05
-1.70745e-06
-9.94241e-06
-1.62185e-06
3.02147e-07
1.82173e-08
-1.91226e-06
-5.35885e-07
5.9535e-08
-9.47225e-08
1.63815e-07
-1.74545e-08
3.45749e-08
-4.25089e-09
4.63766e-09
-2.12094e-09
6.2784e-10
-3.23409e-09
2.57779e-11
-2.69338e-09
1.82299e-09
-1.93323e-09
6.08763e-10
-1.67138e-11
4.48404e-11
-1.61596e-11
-5.39047e-12
-1.79267e-11
-3.91682e-12
-4.60022e-11
-2.02674e-12
-1.96112e-10
-1.13861e-11
-9.95345e-10
-7.99865e-11
-5.29249e-09
-5.4874e-10
-2.51685e-08
-3.50714e-09
-8.89183e-08
-2.20917e-08
-3.58337e-07
-1.27178e-07
-1.93125e-06
-4.92034e-07
-2.14672e-05
-4.98093e-06
-1.86878e-05
-1.0418e-05
-1.53881e-06
-3.78621e-07
-7.91559e-08
-1.63091e-06
-1.35326e-07
2.35419e-07
-2.62858e-08
5.73524e-08
-3.91551e-09
1.03463e-08
-7.15165e-10
1.15432e-09
-2.76466e-10
1.29606e-10
-5.7759e-10
1.83124e-11
-5.23103e-10
1.56861e-11
-4.07907e-10
1.54722e-11
-2.43893e-10
1.03454e-11
-6.11565e-11
-5.98474e-13
-4.60977e-12
-3.14053e-12
-8.99361e-12
-2.2566e-12
-2.08673e-11
-1.85113e-12
-8.54999e-11
-2.23096e-11
-2.49164e-10
-4.17368e-10
-2.387e-09
-1.55409e-09
-1.73219e-08
-8.06197e-09
-1.04677e-07
-4.37071e-08
-4.3842e-07
-1.79929e-07
-5.87697e-06
-8.66169e-07
-1.19169e-05
-5.47632e-06
-3.27827e-06
-3.97747e-06
-2.34987e-06
-1.33992e-06
-3.39935e-08
2.85307e-07
-7.18061e-09
3.74554e-08
-9.43469e-10
3.84279e-09
-1.3579e-10
2.76784e-10
-3.88453e-11
2.53483e-11
-2.93166e-11
4.88716e-12
-1.75227e-11
1.90902e-12
-2.3034e-12
-1.01619e-14
-1.07681e-12
-3.40708e-13
-7.84155e-12
-1.12736e-12
-5.61191e-12
-2.52981e-12
1.8982e-13
-8.99417e-13
-1.70207e-12
-2.23377e-13
-2.45489e-11
-1.5593e-12
-6.74735e-10
-5.98523e-11
-8.61097e-10
-2.49962e-09
-2.75456e-09
-6.95057e-09
-3.72082e-08
-1.33871e-08
-2.021e-07
-2.41753e-08
-1.05363e-06
-2.2835e-08
-1.31314e-05
-6.4291e-08
-1.05925e-05
-1.56094e-07
-1.36823e-06
-2.61226e-06
9.56962e-08
2.83552e-07
-2.95185e-09
1.29097e-07
-2.15736e-10
1.03812e-09
-2.35482e-11
7.32515e-11
-5.44961e-12
5.1254e-12
-1.8781e-12
9.14637e-13
-3.42453e-13
8.85579e-14
-4.82572e-13
-1.63897e-13
-9.26417e-13
-2.62864e-13
-7.58292e-13
-1.49641e-12
-6.42668e-13
-2.59178e-12
-1.47613e-13
-1.51584e-12
-2.21672e-13
-2.74456e-13
-1.69365e-12
-6.84853e-14
-6.15495e-11
-1.55237e-14
-2.13585e-09
-2.18644e-10
-1.02815e-08
-5.15945e-09
-2.00781e-08
-1.5243e-08
-2.77475e-08
-2.36944e-08
-4.32846e-08
-1.51586e-08
-1.00868e-07
-1.38958e-08
-3.58477e-07
-2.60887e-08
-1.00012e-07
-3.54299e-07
1.15695e-07
3.52422e-07
9.93019e-10
3.10578e-07
-3.4803e-11
6.5379e-09
-3.60879e-12
4.05298e-11
-8.44613e-13
1.85895e-12
-4.14431e-13
2.92856e-13
-4.88221e-13
-7.72621e-14
-4.11481e-13
-5.34487e-13
-5.27287e-13
-4.08702e-13
-6.70968e-13
-7.56686e-13
-2.78723e-13
-2.25406e-12
2.73261e-13
-2.08773e-12
9.92834e-14
-5.85982e-13
7.86206e-14
-3.95602e-14
4.34513e-14
-2.56648e-15
-6.14933e-12
-3.95719e-14
-4.89595e-09
-3.95681e-14
-7.83443e-09
-7.73884e-09
-1.22829e-08
-2.00805e-08
-1.73121e-08
-1.73179e-08
-2.47982e-08
-1.28369e-08
-3.79621e-08
-1.93857e-08
-6.71051e-08
-4.07612e-08
6.73468e-08
1.75252e-07
7.30501e-08
4.91967e-07
1.78739e-09
9.48367e-08
-3.74158e-13
1.82769e-09
-3.64209e-13
1.58447e-12
-6.28818e-13
3.19517e-13
-1.45713e-12
5.61251e-13
-9.92417e-13
-1.2923e-12
-2.00835e-13
-1.72681e-12
-1.19195e-13
-1.62904e-12
3.24712e-13
-7.05007e-13
6.93193e-13
-9.70193e-13
2.94283e-13
-5.59214e-13
1.01098e-13
-8.04296e-14
8.10692e-14
-7.05978e-15
1.5137e-13
-2.24649e-15
1.64018e-13
3.48766e-15
3.64256e-11
-1.56561e-14
-5.92644e-09
-8.42377e-09
-8.42702e-09
-2.62456e-08
-1.11756e-08
-1.65492e-08
-3.22916e-08
-1.13193e-08
-4.1815e-08
-9.76589e-08
9.26505e-08
5.37468e-08
2.0054e-07
4.93426e-07
6.94903e-08
3.25828e-07
5.26218e-09
6.83636e-08
1.2389e-10
5.13928e-09
-3.29008e-13
1.24266e-10
-4.82819e-13
3.91662e-12
8.40209e-13
-2.99898e-12
6.13907e-13
-1.79594e-11
2.07043e-13
-1.99484e-12
1.27588e-13
-5.94916e-13
1.58898e-13
-1.6906e-13
3.02557e-13
-5.7271e-14
1.81021e-13
-5.2703e-14
8.27775e-14
-1.61204e-14
7.7358e-14
3.06282e-15
1.19897e-13
1.19237e-14
8.28033e-14
2.68373e-15
6.0255e-09
-8.21043e-15
5.09953e-09
-2.52969e-09
-2.16089e-09
-3.54804e-08
-3.03228e-09
-5.12687e-08
-8.14289e-08
-3.06516e-08
2.7514e-08
9.76672e-09
2.35564e-07
3.48486e-07
1.98432e-07
3.86026e-07
5.30132e-08
2.57656e-07
1.75657e-08
1.17376e-07
1.55484e-10
1.78175e-08
8.92658e-11
1.24979e-10
9.17245e-11
-1.34099e-10
2.73573e-12
-6.20141e-11
-5.75506e-13
-9.65228e-12
1.71257e-13
-1.57815e-12
1.47698e-13
-2.49141e-13
7.80625e-14
-6.29254e-14
1.1661e-13
-2.67162e-14
1.24052e-13
-1.94575e-14
1.20923e-13
-4.88314e-15
1.05794e-13
7.42572e-15
7.93336e-14
9.13945e-15
3.59534e-14
2.96393e-17
2.54332e-08
-2.51046e-14
3.78873e-08
-3.69866e-15
2.56758e-08
-3.08024e-08
-6.86448e-08
2.05683e-08
9.46534e-09
2.44053e-10
1.31832e-07
5.28847e-08
2.24642e-07
2.84507e-07
1.9843e-07
2.72798e-07
1.03921e-07
1.95271e-07
1.25227e-08
8.77954e-08
-8.67091e-10
5.43003e-09
-2.04296e-10
-8.06598e-10
-3.5183e-11
-3.3829e-10
-3.48317e-12
-5.8229e-11
-4.14537e-14
-6.37113e-12
1.6691e-13
-6.51923e-13
1.41029e-13
-8.58593e-14
8.95911e-14
-2.42782e-14
1.34826e-13
-2.03089e-14
1.389e-13
-1.1593e-14
1.23626e-13
-2.11295e-15
7.68602e-14
2.80638e-15
3.91178e-14
1.03991e-15
1.25842e-14
-9.4044e-16
8.84416e-15
-2.33589e-15
5.23127e-08
-6.81569e-11
-3.09303e-08
2.25216e-08
2.61147e-10
-2.18848e-13
4.33045e-08
3.52124e-09
1.46329e-07
7.9915e-08
1.9135e-07
2.11163e-07
1.80659e-07
1.90332e-07
9.88794e-08
9.01677e-08
3.47116e-09
1.46113e-08
5.48177e-10
3.59654e-10
7.38797e-11
-1.64191e-10
8.53943e-12
-3.50353e-11
1.28427e-12
-4.1906e-12
4.39582e-13
-4.0253e-13
1.52274e-13
-4.37339e-14
1.0621e-13
-1.47503e-14
1.67315e-13
-1.72093e-14
1.70008e-13
-1.3847e-14
1.3962e-13
-9.01357e-15
7.96075e-14
-4.90045e-15
2.29179e-14
-2.02579e-15
2.03667e-14
-1.28194e-15
2.36232e-14
-7.96205e-15
2.48006e-11
-9.29365e-11
-1.81989e-10
1.52591e-08
-1.306e-11
-3.02048e-14
3.41173e-09
1.17034e-10
4.59804e-08
4.11917e-09
1.39475e-07
3.58244e-08
9.77627e-08
6.23057e-08
2.97648e-08
1.87931e-08
2.14412e-09
4.72998e-09
5.31463e-10
5.32696e-10
8.00268e-11
2.74571e-11
9.84831e-12
-3.64456e-12
1.37361e-12
-6.6245e-13
3.37178e-13
-7.04332e-14
9.60672e-14
-7.14765e-15
1.04412e-13
-6.12412e-15
1.73125e-13
-9.98332e-15
1.88232e-13
-1.04401e-14
1.66961e-13
-1.05884e-14
8.85764e-14
-9.21566e-15
3.71162e-14
-5.51616e-15
2.94137e-14
-2.1572e-15
4.7145e-14
-1.48864e-15
2.00295e-10
-1.01559e-15
-2.72939e-15
1.82238e-11
-4.61333e-12
1.11648e-12
1.10339e-10
8.05044e-12
3.59082e-09
3.1971e-10
1.36493e-08
3.16045e-09
1.87355e-08
2.74597e-09
7.49336e-09
-1.07527e-09
2.18551e-09
-3.61375e-10
1.04272e-10
1.92177e-10
2.26734e-11
8.81285e-12
3.04321e-12
1.27541e-12
3.89406e-13
1.0328e-13
9.73698e-14
9.1024e-15
6.75052e-14
1.2357e-15
1.19534e-13
1.19779e-15
1.78955e-13
-6.84482e-16
1.9126e-13
-4.23112e-15
1.71391e-13
-8.21542e-15
9.26281e-14
-9.03584e-15
2.67088e-14
-5.72791e-15
5.70174e-15
-2.17965e-15
4.53402e-15
-6.35398e-16
3.004e-15
-7.12876e-16
-3.04998e-16
6.32419e-16
1.32619e-13
2.62986e-13
6.86905e-13
2.78518e-12
2.45587e-10
1.93554e-11
2.02394e-09
4.35271e-10
2.79356e-09
4.66286e-10
8.84078e-10
-5.87937e-11
2.13789e-10
-5.64337e-11
3.61442e-11
-1.64213e-11
1.90919e-12
-1.9698e-13
3.49877e-13
1.15954e-13
8.64419e-14
2.40839e-14
3.26865e-14
3.8845e-15
3.46789e-14
2.91116e-15
1.16528e-13
5.72829e-15
1.85908e-13
6.93586e-15
1.77538e-13
2.26551e-15
1.38939e-13
-2.94654e-15
6.79334e-14
-4.82933e-15
1.88257e-14
-3.23314e-15
3.62338e-15
-1.34067e-15
9.16154e-16
-3.9811e-16
4.27652e-16
-1.71557e-16
-1.74759e-16
3.60687e-16
1.18618e-13
3.87091e-14
1.80957e-12
5.65999e-13
-6.33201e-12
3.99613e-12
1.94605e-10
5.73222e-11
3.36264e-10
6.18944e-11
1.35056e-10
-4.7672e-12
3.2319e-11
-5.39049e-12
4.17264e-12
-1.59507e-12
4.94339e-13
-1.10833e-13
8.14461e-14
1.15138e-14
1.98656e-14
6.56174e-15
1.68179e-14
2.1354e-15
2.89252e-14
3.67345e-15
8.91317e-14
7.70695e-15
1.1589e-13
8.06113e-15
1.09084e-13
3.9311e-15
7.47417e-14
3.41296e-16
3.26485e-14
-1.14654e-15
9.27427e-15
-9.91185e-16
2.10161e-15
-5.48517e-16
5.21308e-16
-2.54628e-16
3.34657e-16
-1.00324e-16
-7.76608e-17
3.09601e-16
2.63018e-14
8.53542e-15
1.62174e-13
4.59143e-14
-5.3628e-13
8.16723e-13
2.2578e-11
6.81542e-12
4.0161e-11
6.82483e-12
1.54929e-11
-4.85679e-13
3.72089e-12
-5.50755e-13
5.83208e-13
-1.30706e-13
7.96791e-14
-1.03701e-14
1.9818e-14
7.95205e-15
7.59001e-15
1.85779e-15
6.58423e-15
1.31739e-15
2.16405e-14
3.04012e-15
4.44279e-14
5.02202e-15
4.54378e-14
3.38138e-15
3.77635e-14
1.73859e-15
2.23227e-14
4.53566e-16
9.31132e-15
-9.99651e-17
3.17326e-15
-1.87384e-16
1.11088e-15
-1.65075e-16
3.72055e-16
-1.17989e-16
1.26517e-16
-5.6617e-17
-2.6757e-17
1.02811e-16
1.20518e-16
1.90375e-15
1.22534e-15
1.98189e-14
3.14287e-13
1.27684e-13
3.00037e-12
7.22524e-13
4.65522e-12
6.6551e-13
1.75415e-12
-1.72506e-14
4.33028e-13
-2.75404e-14
7.44358e-14
-8.8826e-15
1.81061e-14
7.48377e-15
4.40523e-15
1.93199e-15
2.2099e-15
3.92981e-16
3.15083e-15
6.17045e-16
9.52525e-15
1.39111e-15
1.14427e-14
1.2167e-15
1.03015e-14
6.88137e-16
7.15616e-15
3.31766e-16
3.8935e-15
1.05666e-16
1.79022e-15
6.93496e-18
8.40703e-16
-2.36182e-17
4.32446e-16
-3.10551e-17
1.99068e-16
-2.68585e-17
6.27478e-17
-1.45322e-17
-6.55562e-18
2.54389e-17
2.92498e-17
2.2717e-16
3.32517e-15
7.69908e-15
6.167e-14
1.88178e-14
3.37835e-13
7.65532e-14
4.59491e-13
7.01918e-14
1.8233e-13
9.18922e-15
4.50218e-14
3.95984e-15
1.19088e-14
5.31519e-15
3.1132e-15
1.59576e-15
5.78358e-16
2.18363e-16
4.30064e-16
7.26926e-17
1.04264e-15
1.47059e-16
1.83151e-15
2.28695e-16
1.77838e-15
1.35075e-16
1.29525e-15
7.77888e-17
8.26123e-16
3.63438e-17
4.85273e-16
1.43261e-17
2.75281e-16
3.50697e-18
1.61802e-16
-1.44228e-18
9.40933e-17
-2.80935e-18
4.50461e-17
-2.31484e-18
1.49121e-17
-1.54555e-18
-1.69517e-18
7.82639e-18
5.1244e-18
2.7237e-17
7.49634e-16
1.46566e-15
7.3186e-15
4.00801e-15
3.2209e-14
6.46998e-15
4.36563e-14
5.51328e-15
1.68054e-14
5.21228e-15
5.55297e-15
2.71601e-15
1.58034e-15
9.12867e-16
2.6629e-16
1.42776e-16
6.92073e-17
2.07781e-17
5.93791e-17
8.66198e-18
1.45704e-16
1.33585e-17
1.91333e-16
1.54635e-17
1.60447e-16
1.06978e-17
1.12448e-16
6.3263e-18
7.2878e-17
3.17721e-18
4.79774e-17
1.46362e-18
3.11659e-17
5.3064e-19
1.83929e-17
8.40876e-21
9.28582e-18
-1.119e-19
4.0995e-18
-1.29489e-19
2.84531e-18
-1.94814e-19
-3.6475e-19
2.67428e-18
6.74795e-19
3.09145e-18
1.30511e-16
1.60504e-16
8.99893e-16
6.04436e-16
2.9379e-15
1.33311e-15
3.81643e-15
1.34303e-15
1.88896e-15
9.0012e-16
5.74716e-16
3.26988e-16
1.24805e-16
6.83976e-17
2.21387e-17
1.17171e-17
6.07952e-18
1.79215e-18
5.30587e-18
6.19522e-19
1.0181e-17
6.98364e-19
1.33242e-17
9.44116e-19
1.20722e-17
7.6408e-19
8.54896e-18
4.96797e-19
5.47292e-18
2.57102e-19
3.60294e-18
1.17134e-19
2.27604e-18
4.38769e-20
1.1375e-18
7.0685e-21
4.99743e-19
-2.77201e-21
4.07656e-19
-7.04974e-21
4.36986e-19
-1.6353e-20
-3.56195e-20
7.07241e-19
8.05181e-20
3.24326e-19
1.65062e-17
1.66386e-17
9.89403e-17
5.25461e-17
2.76362e-16
1.42986e-16
3.48028e-16
1.42577e-16
1.56662e-16
7.31397e-17
4.38093e-17
2.28532e-17
9.5084e-18
5.13765e-18
1.69541e-18
8.94145e-19
4.37188e-19
1.38247e-19
3.71241e-19
4.2231e-20
6.01672e-19
4.51823e-20
8.9518e-19
6.84897e-20
8.47111e-19
5.80969e-20
6.08433e-19
3.86021e-20
3.65063e-19
1.94594e-20
2.14268e-19
8.04169e-21
1.17643e-19
2.76039e-21
4.9332e-20
5.51121e-22
2.8738e-20
-2.19134e-23
2.73965e-20
-1.96051e-22
4.57454e-20
-4.39755e-22
-1.35337e-21
6.94819e-20
8.70034e-21
3.16381e-20
1.77348e-18
1.65093e-18
8.51484e-18
4.06989e-18
2.11959e-17
9.51058e-18
2.61518e-17
9.25679e-18
1.12268e-17
4.98195e-18
3.13504e-18
1.60583e-18
6.70593e-19
3.61815e-19
1.18935e-19
6.27653e-20
3.05827e-20
9.83661e-21
2.59556e-20
3.23016e-21
4.02789e-20
3.6308e-21
6.11594e-20
5.30105e-21
5.84886e-20
4.41232e-21
4.10309e-20
2.87634e-21
2.26188e-20
1.38617e-21
1.15752e-20
5.29393e-22
5.53209e-21
1.70766e-22
2.05775e-21
3.77506e-23
1.07461e-21
2.72789e-24
1.01443e-21
-3.25612e-24
1.40313e-21
-2.10417e-23
-4.05373e-22
4.35554e-21
8.54155e-22
2.87205e-21
1.69015e-19
1.51175e-19
6.50827e-19
3.04241e-19
1.4597e-18
6.35969e-19
1.77413e-18
6.14238e-19
7.53444e-19
3.31471e-19
2.07583e-19
1.06179e-19
4.36418e-20
2.36874e-20
7.71746e-21
4.08051e-21
2.11527e-21
6.56572e-22
1.84611e-21
2.48645e-22
2.90893e-21
2.94006e-22
4.141e-21
3.93372e-22
3.88942e-21
3.17829e-22
2.60619e-21
2.00119e-22
1.33272e-21
9.24884e-23
6.11157e-22
3.33859e-23
2.61498e-22
1.00805e-23
8.48928e-23
2.1914e-24
3.07226e-23
1.9161e-25
2.81348e-23
-1.28882e-25
1.60832e-22
-8.2025e-24
-2.21674e-22
2.12715e-21
7.65545e-23
2.3639e-22
1.44088e-20
1.27366e-20
4.52881e-20
2.12166e-20
9.44395e-20
4.05799e-20
1.11095e-19
3.88555e-20
4.69989e-20
2.07621e-20
1.27612e-20
6.5774e-21
2.63468e-21
1.44901e-21
4.66331e-22
2.47463e-22
1.41222e-22
4.12279e-23
1.27856e-22
1.80336e-23
2.0682e-22
2.22179e-23
2.70581e-22
2.71572e-23
2.4369e-22
2.13629e-23
1.5457e-22
1.28486e-23
7.36318e-23
5.56791e-24
2.98826e-23
1.7502e-24
1.06462e-23
4.14736e-25
2.6751e-24
7.02149e-26
1.32352e-24
6.37838e-27
5.4628e-24
2.09053e-26
9.96043e-23
-3.15898e-24
-9.54414e-23
1.35321e-21
6.00638e-24
1.54665e-23
1.10716e-21
9.94881e-22
2.88795e-21
1.38028e-21
5.70211e-21
2.44454e-21
6.53134e-21
2.32234e-21
2.7413e-21
1.22709e-21
7.31745e-22
3.83448e-22
1.48291e-22
8.32547e-23
2.63831e-23
1.40817e-23
8.972e-24
2.44936e-24
8.40964e-24
1.22747e-24
1.39258e-23
1.57336e-24
1.68064e-23
1.74349e-24
1.4228e-23
1.32161e-24
8.38533e-24
7.13576e-25
3.39715e-24
2.38979e-25
9.36804e-25
4.85986e-26
1.96322e-25
2.03558e-25
3.70865e-26
3.34939e-26
1.66872e-26
3.03779e-27
2.36615e-24
2.93781e-26
5.07585e-23
-6.01141e-25
-2.24253e-23
5.87774e-22
3.40379e-25
1.17983e-23
7.70816e-23
7.19347e-23
1.69551e-22
8.38996e-23
3.22666e-22
1.39197e-22
3.61874e-22
1.3146e-22
1.50122e-22
6.86217e-23
3.93103e-23
2.11174e-23
7.81605e-24
4.51232e-24
1.40581e-24
7.55657e-25
5.43601e-25
1.38862e-25
5.25312e-25
7.97353e-26
8.76658e-25
1.05383e-25
9.73595e-25
1.00983e-25
7.48008e-25
6.4507e-26
3.25561e-25
2.39732e-26
6.42665e-26
1.22608e-25
4.7705e-26
2.26395e-26
-2.64013e-26
-9.96561e-27
-1.24775e-25
-3.50954e-26
-1.15828e-25
-2.14048e-26
5.86178e-25
2.18654e-26
1.40368e-23
-2.38803e-26
-2.70655e-24
1.44279e-22
-2.01995e-26
-3.96545e-25
4.82761e-24
4.60731e-24
9.12531e-24
4.65839e-24
1.71198e-23
7.42567e-24
1.89389e-23
7.01781e-24
7.73777e-24
3.62524e-24
1.98454e-24
1.09812e-24
3.87154e-25
2.30845e-25
7.09489e-26
3.82166e-26
3.16553e-26
7.53887e-27
3.1395e-26
4.98751e-27
4.8343e-26
6.20172e-27
4.93027e-26
4.15498e-27
2.05262e-26
1.72622e-27
1.64727e-26
1.23605e-26
-2.62131e-26
-1.67917e-26
-1.2619e-25
-6.75228e-26
-2.01515e-25
-8.70741e-26
-2.04689e-25
-6.75654e-26
-1.40794e-25
-3.2068e-26
-1.91194e-26
-2.36936e-27
1.69717e-24
2.85212e-27
-2.49482e-25
2.0227e-23
-1.17743e-25
-2.33013e-24
2.62255e-25
3.51817e-25
4.3857e-25
2.71361e-25
8.37945e-25
4.39033e-25
9.33488e-25
3.76756e-25
3.74401e-25
1.75948e-25
9.37978e-26
5.26006e-26
1.79401e-26
1.0888e-26
3.37038e-27
1.77575e-27
1.72056e-27
3.85669e-28
1.83346e-27
2.74745e-28
2.3137e-27
2.30728e-28
1.03253e-27
2.41167e-27
1.10552e-27
1.0581e-27
-2.20977e-26
-1.84055e-26
-8.17952e-26
-5.85418e-26
-1.49359e-25
-9.0089e-26
-1.7559e-25
-8.66291e-26
-1.46651e-25
-5.64033e-26
-8.94821e-26
-2.46487e-26
-2.96897e-26
-4.88529e-27
1.41319e-25
3.97572e-28
-2.83757e-26
2.40772e-24
-8.54401e-26
-1.70007e-24
1.44982e-26
2.03002e-25
2.29639e-26
1.93348e-25
3.9911e-26
3.11162e-25
4.02459e-26
2.41175e-25
1.6472e-26
5.35307e-26
3.97874e-27
9.42198e-27
7.45199e-28
1.18872e-27
1.46381e-28
9.16387e-29
7.91248e-29
1.6132e-29
7.21613e-29
9.64238e-30
1.01502e-28
1.38819e-28
-3.43904e-28
-4.15645e-28
-6.37955e-27
-6.79033e-27
-2.86973e-26
-2.6718e-26
-6.77522e-26
-5.45673e-26
-9.92663e-26
-6.79921e-26
-9.99925e-26
-5.67501e-26
-7.35691e-26
-3.32003e-26
-4.04445e-26
-1.35239e-26
-1.48106e-26
-3.18549e-27
2.00719e-26
5.71538e-29
-3.21781e-27
3.85599e-25
-4.47978e-26
-8.98197e-25
-6.53569e-27
-7.00878e-26
-6.4338e-27
-4.29394e-26
-3.84103e-27
-1.97143e-26
7.36394e-28
2.72492e-27
1.32482e-27
4.61535e-27
2.65136e-28
1.60288e-27
3.27046e-29
3.59081e-28
5.81349e-30
6.4188e-29
2.12851e-30
1.23931e-29
3.82668e-30
6.59436e-30
-5.47445e-29
-8.36782e-29
-1.04266e-27
-1.41381e-27
-6.33873e-27
-7.60622e-27
-2.00515e-26