/*--------------------------------*- C++ -*----------------------------------*\
| =========                 |                                                 |
| \\      /  F ield         | OpenFOAM: The Open Source CFD Toolbox           |
|  \\    /   O peration     | Version:  2206                                  |
|   \\  /    A nd           | Website:  www.openfoam.com                      |
|    \\/     M anipulation  |                                                 |
\*---------------------------------------------------------------------------*/
FoamFile
{
    version     2.0;
    format      ascii;
    arch        "LSB;label=32;scalar=64";
    class       surfaceScalarField;
    location    "0.45";
    object      alphaPhi0.water;
}
// * * * * * * * * * * * * * * * * * * * * * * * * * * * * * * * * * * * * * //

dimensions      [0 3 -1 0 0 0 0];

oriented        oriented;

internalField   nonuniform List<scalar> 
4432
(
-3.30858e-07
3.30858e-07
4.8869e-07
-8.19549e-07
1.90985e-06
-1.42116e-06
3.47482e-06
-1.56498e-06
4.9095e-06
-1.43468e-06
6.09986e-06
-1.19036e-06
7.03652e-06
-9.36659e-07
7.75931e-06
-7.22789e-07
8.31693e-06
-5.57617e-07
8.74433e-06
-4.27406e-07
9.05346e-06
-3.09132e-07
9.23051e-06
-1.77052e-07
9.24519e-06
-1.46784e-08
9.01621e-06
2.28982e-07
8.46128e-06
5.54925e-07
7.4986e-06
9.62686e-07
6.07747e-06
1.42113e-06
4.22587e-06
1.8516e-06
2.12289e-06
2.10297e-06
9.56386e-08
2.02726e-06
-1.27243e-06
1.36807e-06
-1.33421e-06
6.17732e-08
-1.33421e-06
-3.66693e-07
6.9755e-07
4.38181e-07
-1.62442e-06
1.87305e-06
-2.85603e-06
3.47817e-06
-3.1701e-06
4.96713e-06
-2.92364e-06
6.21078e-06
-2.43402e-06
7.19036e-06
-1.91623e-06
7.94438e-06
-1.47681e-06
8.52588e-06
-1.13912e-06
8.9774e-06
-8.78925e-07
9.3236e-06
-6.55337e-07
9.57786e-06
-4.31311e-07
9.74027e-06
-1.77092e-07
9.82154e-06
1.47712e-07
9.82962e-06
5.46841e-07
9.7153e-06
1.07701e-06
9.36944e-06
1.76698e-06
8.62753e-06
2.59351e-06
7.33944e-06
3.39106e-06
5.52035e-06
3.84635e-06
3.41318e-06
3.47524e-06
1.38859e-06
2.08636e-06
5.43794e-08
-4.34244e-07
1.13179e-06
3.19368e-07
-2.37804e-06
1.75744e-06
-4.29409e-06
3.4122e-06
-4.82487e-06
4.97467e-06
-4.48611e-06
6.28948e-06
-3.74882e-06
7.32203e-06
-2.94878e-06
8.10845e-06
-2.26322e-06
8.70859e-06
-1.73926e-06
9.17517e-06
-1.3455e-06
9.54029e-06
-1.02045e-06
9.8124e-06
-7.03424e-07
9.9816e-06
-3.4629e-07
1.00507e-05
7.8557e-08
1.00007e-05
5.96918e-07
9.85837e-06
1.21932e-06
9.65361e-06
1.97174e-06
9.37264e-06
2.87448e-06
8.86181e-06
3.90189e-06
7.81803e-06
4.89013e-06
5.88237e-06
5.41091e-06
3.08649e-06
4.88225e-06
3.14087e-06
-5.2855e-07
1.66034e-06
1.55593e-07
-3.06218e-06
1.60019e-06
-5.7387e-06
3.32033e-06
-6.545e-06
4.97831e-06
-6.14408e-06
6.3876e-06
-5.15812e-06
7.49442e-06
-4.0556e-06
8.33066e-06
-3.09947e-06
8.96282e-06
-2.37142e-06
9.45462e-06
-1.83731e-06
9.84865e-06
-1.41448e-06
1.01632e-05
-1.01794e-06
1.03982e-05
-5.81303e-07
1.05341e-05
-5.73216e-08
1.05521e-05
5.78924e-07
1.04272e-05
1.34417e-06
1.0153e-05
2.24594e-06
9.74377e-06
3.28372e-06
9.18494e-06
4.46072e-06
8.30318e-06
5.77188e-06
6.65754e-06
7.05655e-06
3.81631e-06
7.72348e-06
6.95719e-06
-6.41666e-07
2.30201e-06
-1.834e-08
-3.68551e-06
1.42582e-06
-7.18285e-06
3.21228e-06
-8.33147e-06
4.9662e-06
-7.898e-06
6.47462e-06
-6.66653e-06
7.66571e-06
-5.24669e-06
8.56581e-06
-3.99957e-06
9.24606e-06
-3.05168e-06
9.7798e-06
-2.37104e-06
1.02198e-05
-1.85451e-06
1.05926e-05
-1.39072e-06
1.09014e-05
-8.90043e-07
1.11337e-05
-2.89642e-07
1.12619e-05
4.50709e-07
1.12512e-05
1.35489e-06
1.10535e-05
2.44357e-06
1.06156e-05
3.72162e-06
9.89159e-06
5.18477e-06
8.81825e-06
6.84522e-06
7.14158e-06
8.73322e-06
4.291e-06
1.05741e-05
1.12482e-05
-7.74232e-07
3.07624e-06
-2.23414e-07
-4.23633e-06
1.25081e-06
-8.65707e-06
3.09866e-06
-1.01793e-05
4.93115e-06
-9.7305e-06
6.524e-06
-8.25938e-06
7.79545e-06
-6.51814e-06
8.76758e-06
-4.97169e-06
9.51329e-06
-3.79739e-06
1.01111e-05
-2.96886e-06
1.06204e-05
-2.3638e-06
1.1074e-05
-1.84429e-06
1.14801e-05
-1.2962e-06
1.18287e-05
-6.38209e-07
1.20961e-05
1.83316e-07
1.22429e-05
1.20808e-06
1.22138e-05
2.47271e-06
1.19226e-05
4.01279e-06
1.12456e-05
5.86177e-06
1.00402e-05
8.05061e-06
8.09915e-06
1.06743e-05
4.8787e-06
1.37945e-05
1.61269e-05
-9.13631e-07
3.98987e-06
-4.38561e-07
-4.7114e-06
1.03463e-06
-1.01303e-05
2.95078e-06
-1.20955e-05
4.863e-06
-1.16427e-05
6.52111e-06
-9.91749e-06
7.85277e-06
-7.8498e-06
8.89249e-06
-6.01141e-06
9.71712e-06
-4.62202e-06
1.04044e-05
-3.65615e-06
1.10134e-05
-2.97282e-06
1.15791e-05
-2.41002e-06
1.21142e-05
-1.83126e-06
1.26134e-05
-1.1374e-06
1.30545e-05
-2.57793e-07
1.3408e-05
8.54615e-07
1.36194e-05
2.26126e-06
1.36072e-05
4.02501e-06
1.32278e-05
6.24118e-06
1.22906e-05
8.9878e-06
1.0467e-05
1.24978e-05
7.39539e-06
1.68661e-05
2.35223e-05
-1.06772e-06
5.05759e-06
-7.46983e-07
-5.03214e-06
6.41135e-07
-1.15184e-05
2.66744e-06
-1.41218e-05
4.72205e-06
-1.36973e-05
6.45866e-06
-1.16541e-05
7.83175e-06
-9.22289e-06
8.92325e-06
-7.10291e-06
9.82926e-06
-5.52802e-06
1.06253e-05
-4.45222e-06
1.13633e-05
-3.71081e-06
1.20743e-05
-3.12103e-06
1.27721e-05
-2.52905e-06
1.34566e-05
-1.82188e-06
1.4117e-05
-9.18171e-07
1.47309e-05
2.40645e-07
1.52611e-05
1.73114e-06
1.56397e-05
3.64637e-06
1.57151e-05
6.16583e-06
1.5218e-05
9.48483e-06
1.34244e-05
1.42914e-05
9.49851e-06
2.07921e-05
3.30208e-05
-5.12635e-06
5.13125e-06
-2.51108e-05
1.99893e-05
-3.39641e-05
8.83989e-06
-3.57093e-05
-6.03957e-08
-3.23453e-05
-1.30574e-06
-2.5611e-05
-2.52189e-06
-1.70647e-05
-5.32735e-06
3.1967e-06
-2.3119e-05
4.4171e-05
-4.1604e-05
6.81727e-05
-2.32818e-05
7.54761e-05
-5.81854e-06
6.29659e-05
1.15182e-05
3.31411e-05
2.92419e-05
1.98784e-06
3.46309e-05
-9.25634e-06
1.86413e-05
-2.39721e-05
6.09839e-06
-5.1749e-05
1.00258e-05
-4.74548e-05
-4.28337e-06
-4.7444e-05
-1.55611e-05
2.06973e-05
-9.67838e-06
9.78948e-06
-3.493e-06
1.79741e-06
-3.07455e-06
-6.79665e-07
-2.50317e-06
-2.07795e-06
-2.06479e-06
-3.15705e-06
7.41608e-06
-1.58386e-05
6.8091e-05
-8.83986e-05
0.000100362
-7.3891e-05
0.0001158
-3.86893e-05
0.000120885
-1.08641e-05
0.000117937
1.45103e-05
0.000100973
4.61024e-05
6.21464e-05
7.39411e-05
1.22624e-05
7.44217e-05
-1.46176e-05
2.43611e-05
-3.97602e-05
2.1583e-05
-3.45068e-05
-9.54935e-06
-8.19399e-05
-4.42682e-06
1.20241e-05
-2.12996e-06
6.08134e-06
-9.47903e-07
4.14161e-07
3.00489e-08
-1.85834e-06
7.55746e-07
-3.00485e-06
7.85808e-06
-1.04587e-05
7.48419e-05
-7.9526e-05
0.000103574
-0.000116572
0.000116034
-8.63084e-05
0.000124654
-4.72698e-05
0.000128097
-1.42688e-05
0.000127546
1.5099e-05
0.000122644
5.10422e-05
0.000103868
9.27589e-05
6.05036e-05
0.000117865
5.15908e-06
0.000100267
-1.8985e-05
3.88087e-05
-2.72528e-05
-7.47296e-06
-0.000109155
2.89404e-07
2.31191e-05
1.06516e-06
5.10423e-06
1.53718e-06
-2.59376e-07
2.0865e-06
-2.60886e-06
7.57155e-06
-8.69152e-06
5.96257e-05
-6.09987e-05
0.000104188
-0.000122524
0.000112043
-0.000124357
0.000120181
-9.44007e-05
0.000127034
-5.40857e-05
0.000130563
-1.77604e-05
0.000130432
1.52678e-05
0.000127625
5.38868e-05
0.000120109
0.000100313
9.58061e-05
0.000142209
4.55023e-05
0.000152651
-1.82774e-06
7.92202e-05
-1.69912e-05
4.10999e-06
-0.000123468
4.41421e-06
2.44931e-05
2.52595e-06
8.20168e-06
2.93888e-06
-8.73666e-07
6.87329e-06
-6.74489e-06
4.95749e-05
-5.24945e-05
0.00010053
-0.000112433
0.000110343
-0.000132111
0.000116106
-0.000129958
0.000122831
-0.000101057
0.000128833
-6.00417e-05
0.000132215
-2.11054e-05
0.000133049
1.44709e-05
0.000130043
5.69307e-05
0.000125517
0.000104878
0.000113622
0.000154142
8.05332e-05
0.000185785
2.5165e-05
0.000138821
3.18146e-06
2.28222e-05
-0.000118777
2.34532e-06
2.36047e-05
5.59093e-06
4.18694e-06
6.14432e-06
-1.55555e-06
4.51311e-05
-4.62546e-05
9.35465e-05
-0.000101762
0.000107109
-0.000125638
0.00011275
-0.000137377
0.0001172
-0.000134187
0.000120267
-0.000103965
0.000115223
-5.20736e-05
0.000110617
-1.22802e-05
0.000119151
7.55417e-06
0.000127694
4.8425e-05
0.000126333
0.000106278
0.000121002
0.000159519
0.00010384
0.000202997
5.78796e-05
0.000197468
1.82341e-05
7.02736e-05
-0.000102403
5.26231e-06
1.44866e-05
9.92686e-06
-3.39794e-06
4.92642e-05
-4.32159e-05
9.14834e-05
-8.87723e-05
0.000104728
-0.000114778
0.000109619
-0.000130204
0.000112334
-0.000139734
0.000106064
-0.000126259
6.02064e-05
-4.73329e-05
2.67423e-05
-9.18932e-06
2.03415e-05
-1.27004e-06
3.15008e-05
9.79464e-08
7.34008e-05
5.82257e-06
0.000113473
6.27601e-05
0.000119719
0.000153328
0.000113417
0.0002094
8.84766e-05
0.000222503
4.2779e-05
0.000124612
-5.87031e-05
2.44373e-05
-1.09721e-05
6.22122e-05
-4.05664e-05
9.19237e-05
-7.26721e-05
0.000101781
-9.84585e-05
0.000106744
-0.000119517
0.000107402
-0.000130634
9.66869e-05
-0.000126893
3.84131e-05
-5.73979e-05
9.62104e-06
-8.58844e-06
1.60094e-06
-1.10015e-06
4.03263e-07
-6.20272e-08
4.98183e-07
4.04528e-09
5.68333e-06
6.15568e-07
5.40822e-05
8.31913e-06
0.000104414
9.87803e-05
0.000113634
0.000200276
9.87798e-05
0.0002377
5.78592e-05
0.000166185
-3.63532e-07
-2.5351e-06
7.59269e-06
-2.51569e-06
-5.05156e-06
-4.92386e-08
-1.39848e-05
4.52229e-06
-1.86933e-05
9.39179e-06
-1.85668e-05
1.33916e-05
-1.56539e-05
1.64543e-05
-1.22856e-05
1.89338e-05
-9.58248e-06
2.11322e-05
-7.72638e-06
2.32153e-05
-6.53534e-06
2.52639e-05
-5.75936e-06
2.73189e-05
-5.17604e-06
2.94045e-05
-4.61464e-06
3.15391e-05
-3.95652e-06
3.37455e-05
-3.12456e-06
3.6054e-05
-2.06789e-06
3.85451e-05
-7.59963e-07
4.13319e-05
8.59565e-07
4.46234e-05
2.87436e-06
4.89175e-05
5.19072e-06
5.51248e-05
8.08413e-06
6.56366e-05
1.02803e-05
1.69969e-05
8.16604e-05
-1.21128e-06
8.80396e-06
-1.32983e-06
-4.93301e-06
6.76644e-07
-1.59912e-05
4.81796e-06
-2.2834e-05
9.4088e-06
-2.3157e-05
1.33163e-05
-1.9561e-05
1.64056e-05
-1.53746e-05
1.9067e-05
-1.22439e-05
2.16399e-05
-1.02992e-05
2.4267e-05
-9.1624e-06
2.69755e-05
-8.46776e-06
2.97594e-05
-7.96e-06
3.26216e-05
-7.47678e-06
3.55883e-05
-6.92328e-06
3.87163e-05
-6.25249e-06
4.20967e-05
-5.44833e-06
4.58505e-05
-4.5138e-06
5.01713e-05
-3.46119e-06
5.53334e-05
-2.28779e-06
6.15808e-05
-1.05667e-06
6.92674e-05
3.97517e-07
7.84113e-05
1.13638e-06
4.18291e-06
9.12253e-05
4.70268e-06
4.10127e-06
9.48663e-06
-9.71697e-06
1.34245e-05
-1.99242e-05
1.44552e-05
-2.38516e-05
1.46945e-05
-2.33828e-05
1.57166e-05
-2.05739e-05
1.75018e-05
-1.71541e-05
1.98594e-05
-1.45979e-05
2.26561e-05
-1.30936e-05
2.5754e-05
-1.22585e-05
2.90226e-05
-1.17349e-05
3.23738e-05
-1.13099e-05
3.57743e-05
-1.08763e-05
3.92385e-05
-1.03866e-05
4.28138e-05
-9.82706e-06
4.65704e-05
-9.20435e-06
5.05977e-05
-8.54079e-06
5.50066e-05
-7.86982e-06
5.99451e-05
-7.22609e-06
6.55648e-05
-6.67634e-06
7.21929e-05
-6.2305e-06
7.9538e-05
-6.20873e-06
-6.11779e-06
8.98386e-05
1.45455e-05
-9.34459e-06
2.80859e-05
-1.82986e-05
2.70766e-05
-8.76348e-06
2.31154e-05
-6.04873e-06
1.89829e-05
-7.42131e-06
1.60826e-05
-8.16904e-06
1.58139e-05
-8.00418e-06
1.73995e-05
-7.84099e-06
1.99971e-05
-7.84252e-06
2.31293e-05
-7.91928e-06
2.65175e-05
-8.00109e-06
3.00178e-05
-8.06615e-06
3.3583e-05
-8.10925e-06
3.72194e-05
-8.12453e-06
4.09527e-05
-8.10573e-06
4.48216e-05
-8.05603e-06
4.88767e-05
-7.99044e-06
5.31748e-05
-7.936e-06
5.77813e-05
-7.92619e-06
6.27078e-05
-7.97305e-06
6.79031e-05
-8.04289e-06
7.34054e-05
-8.35448e-06
-8.79987e-06
7.94465e-05
9.525e-06
-1.96805e-13
5.3582e-06
-1.58777e-09
2.64144e-06
-3.25244e-08
2.55097e-06
3.41575e-08
2.38756e-06
1.35464e-18
1.99507e-06
1.20421e-17
1.99667e-06
5.03358e-17
2.30038e-06
1.73743e-16
2.81639e-06
5.46878e-16
3.50872e-06
1.428e-15
4.35787e-06
3.17425e-15
5.34376e-06
5.91519e-15
6.46141e-06
8.994e-15
7.71305e-06
1.17489e-14
9.09406e-06
1.33931e-14
1.05879e-05
1.41537e-14
1.21782e-05
1.42133e-14
1.38435e-05
1.31459e-14
1.55284e-05
1.04702e-14
1.7073e-05
5.95889e-15
1.82246e-05
-8.20719e-15
1.90401e-05
-4.96296e-14
-2.40838e-14
1.92866e-05
5.77569e-15
-2.51248e-13
-1.55408e-09
-3.3722e-11
-3.41575e-08
3.39733e-11
2.76507e-18
5.23993e-19
2.74599e-18
9.08974e-18
-3.44396e-18
4.84331e-17
-2.82572e-17
1.81432e-16
-1.36151e-16
5.92054e-16
-5.19239e-16
1.7345e-15
-1.59494e-15
4.3402e-15
-4.17645e-15
9.13405e-15
-9.14186e-15
1.6128e-14
-1.62098e-14
2.40454e-14
-2.45304e-14
3.12101e-14
-3.22306e-14
3.6359e-14
-3.90678e-14
3.90946e-14
-4.47181e-14
3.94294e-14
-4.66227e-14
3.35444e-14
-4.08618e-14
1.90916e-14
-2.51515e-14
-4.16235e-15
1.43822e-15
-3.58684e-14
1.0074e-14
-6.22131e-14
-3.50902e-14
1.04727e-14
-2.51248e-13
3.35363e-21
-3.39733e-11
4.54751e-21
1.39666e-18
1.8975e-20
1.29992e-18
5.05806e-19
-1.371e-18
1.67156e-17
-1.79433e-17
8.76652e-17
-1.09716e-16
3.53435e-16
-4.74225e-16
1.16522e-15
-1.6463e-15
3.22759e-15
-4.70859e-15
7.57554e-15
-1.12825e-14
1.50879e-14
-2.26245e-14
2.52825e-14
-3.81075e-14
3.56665e-14
-5.55921e-14
4.37802e-14
-7.25566e-14
4.83305e-14
-8.69017e-14
4.91293e-14
-9.69412e-14
4.60873e-14
-9.07834e-14
1.76996e-14
-5.65104e-14
-3.69905e-14
2.85608e-14
-8.92435e-14
1.46515e-13
-1.5777e-13
3.13339e-13
-2.39791e-13
-4.8456e-13
7.49847e-13
3.75071e-21
7.29162e-21
4.29331e-21
3.6111e-20
-2.57503e-20
3.49276e-19
-2.50316e-19
3.72096e-18
-7.29866e-18
2.65506e-17
-4.27052e-17
1.39075e-16
-2.04081e-16
5.65552e-16
-7.94914e-16
1.8348e-15
-2.5495e-15
4.87524e-15
-6.82474e-15
1.08045e-14
-1.53572e-14
2.01136e-14
-2.8879e-14
3.11884e-14
-4.54457e-14
4.02169e-14
-6.19662e-14
4.49078e-14
-7.58953e-14
4.50728e-14
-8.55472e-14
4.13353e-14
-8.87735e-14
3.28883e-14
-3.75642e-14
-7.811e-14
1.40752e-13
-2.09919e-13
5.9393e-13
-5.5184e-13
2.47867e-12
-2.09659e-12
5.13035e-12
-3.03815e-12
-5.68508e-12
1.02478e-11
-5.62147e-22
8.31573e-22
-6.28924e-21
3.07128e-20
-1.22748e-19
5.54029e-19
-1.14737e-18
5.65537e-18
-9.04623e-18
3.97982e-17
-5.57247e-17
2.0406e-16
-2.66016e-16
8.0136e-16
-1.00647e-15
2.49105e-15
-3.07893e-15
6.26759e-15
-7.74355e-15
1.29634e-14
-1.61767e-14
2.21926e-14
-2.79318e-14
3.11264e-14
-3.99505e-14
3.55961e-14
-4.94402e-14
3.49694e-14
-5.50245e-14
3.0641e-14
-5.58948e-14
2.35641e-14
-4.9035e-14
1.14052e-14
3.04864e-13
-4.28791e-13
2.35313e-12
-2.30665e-12
9.34894e-12
-7.67818e-12
3.58407e-11
-2.94996e-11
7.03659e-11
-4.01454e-11
-5.66141e-11
1.20192e-10
-1.17769e-22
4.24313e-22
-3.72944e-21
4.03951e-20
-9.58835e-20
7.50276e-19
-1.2531e-18
7.58222e-18
-1.08678e-17
5.20423e-17
-6.7541e-17
2.59704e-16
-3.11681e-16
9.81949e-16
-1.11361e-15
2.90126e-15
-3.17167e-15
6.83621e-15
-7.33446e-15
1.30184e-14
-1.39036e-14
2.01348e-14
-2.14626e-14
2.49259e-14
-2.69465e-14
2.43763e-14
-2.90513e-14
2.01329e-14
-2.78652e-14
1.42926e-14
-2.32949e-14
7.41533e-15
-1.21552e-14
-2.35651e-15
3.23072e-12
-3.66998e-12
2.0853e-11
-2.05691e-11
9.64308e-11
-8.56413e-11
4.17209e-10
-6.79294e-10
5.86022e-10
-1.35182e-09
-3.05643e-10
6.5229e-10
-5.22598e-23
5.93075e-22
-4.67607e-21
5.02998e-20
-1.14567e-19
9.07157e-19
-1.50589e-18
9.00968e-18
-1.24403e-17
6.00066e-17
-7.23288e-17
2.88316e-16
-3.12659e-16
1.03992e-15
-1.03942e-15
2.89105e-15
-2.71782e-15
6.2997e-15
-5.67058e-15
1.08621e-14
-9.50589e-15
1.48278e-14
-1.26549e-14
1.5663e-14
-1.32327e-14
1.23831e-14
-1.16012e-14
7.89859e-15
-8.63969e-15
3.6789e-15
-4.64004e-15
9.20375e-17
1.24646e-14
-1.94611e-14
2.59463e-11
-3.4129e-11
2.31088e-10
-3.97226e-10
1.10152e-09
-1.56191e-09
1.12816e-09
-1.61354e-09
1.28815e-09
-1.50608e-09
-4.80953e-10
3.97261e-10
-6.67459e-23
8.26392e-22
-5.32453e-21
5.60842e-20
-1.19533e-19
9.72993e-19
-1.47993e-18
9.39004e-18
-1.17135e-17
6.02812e-17
-6.47467e-17
2.76459e-16
-2.62803e-16
9.41504e-16
-8.06389e-16
2.43406e-15
-1.90429e-15
4.83212e-15
-3.4984e-15
7.38856e-15
-5.00884e-15
8.63445e-15
-5.46096e-15
7.42672e-15
-4.36743e-15
4.33181e-15
-2.74046e-15
1.74078e-15
-1.21482e-15
7.64462e-17
-2.81154e-17
-3.06603e-16
2.88903e-13
-3.08392e-13
2.22789e-10
-4.39213e-10
3.30236e-10
-1.62632e-09
4.50655e-10
-1.67673e-09
4.67926e-10
-1.62507e-09
4.73883e-10
-1.50686e-09
-1.81282e-10
2.06987e-11
-7.56605e-23
9.81979e-22
-4.93561e-21
5.44885e-20
-1.05901e-19
9.05319e-19
-1.25162e-18
8.40257e-18
-9.44019e-18
5.1502e-17
-4.92343e-17
2.23431e-16
-1.8574e-16
7.11139e-16
-5.19657e-16
1.68925e-15
-1.09156e-15
3.00832e-15
-1.72668e-15
3.98834e-15
-2.03605e-15
3.84869e-15
-1.70773e-15
2.53491e-15
-9.1981e-16
9.32161e-16
-3.13475e-16
8.38474e-17
-1.03041e-17
-1.32347e-16
2.89997e-15
-3.21687e-15
2.83086e-12
-3.13208e-12
-2.19463e-11
-4.7168e-10
-8.57346e-11
-1.55496e-09
-1.4499e-10
-1.61131e-09
-1.93058e-10
-1.57201e-09
-1.68662e-10
-1.5054e-09
-2.49779e-10
-2.54438e-11
-6.95818e-23
9.63069e-22
-3.82897e-21
4.46068e-20
-7.94193e-20
7.04888e-19
-8.99569e-19
6.22968e-18
-6.43538e-18
3.61092e-17
-3.15092e-17
1.4677e-16
-1.10111e-16
4.32057e-16
-2.80105e-16
9.32299e-16
-5.2132e-16
1.47003e-15
-7.03776e-16
1.661e-15
-6.6965e-16
1.2863e-15
-4.13858e-16
6.09445e-16
-1.30569e-16
1.04371e-16
-8.49628e-18
-3.40608e-17
6.52522e-17
-1.66914e-16
-2.52748e-15
-5.87929e-16
-2.78134e-12
-3.19405e-13
-8.76173e-11
-1.4221e-10
-2.97921e-10
-1.33285e-09
-4.12115e-10
-1.48954e-09
-4.87166e-10
-1.49079e-09
-3.87712e-10
-1.59393e-09
-1.03344e-09
-2.8876e-10
-5.15009e-23
7.48999e-22
-2.47734e-21
2.92651e-20
-4.96724e-20
4.35463e-19
-5.36696e-19
3.62741e-18
-3.63603e-18
1.96982e-17
-1.67128e-17
7.43411e-17
-5.41623e-17
2.00596e-16
-1.25702e-16
3.90175e-16
-2.08578e-16
5.42521e-16
-2.42473e-16
5.25532e-16
-1.87996e-16
3.34953e-16
-8.56872e-17
1.17493e-16
-1.31798e-17
3.44439e-18
1.32209e-17
-9.3139e-17
3.12984e-17
-1.05255e-15
1.11306e-15
-2.65225e-15
-3.08667e-13
-8.27836e-15
1.67014e-12
-2.31095e-14
-8.34722e-11
-4.61711e-12
-2.7276e-10
-1.02218e-09
-3.8813e-10
-1.3645e-09
-5.98428e-10
-1.34111e-09
-7.09419e-10
-4.73606e-10
-2.99463e-23
4.29159e-22
-1.28369e-21
1.41711e-20
-2.47498e-20
1.961e-19
-2.54394e-19
1.52573e-18
-1.62923e-18
7.71071e-18
-7.02063e-18
2.69144e-17
-2.11005e-17
6.65941e-17
-4.48138e-17
1.17578e-16
-6.6923e-17
1.46691e-16
-6.85157e-17
1.25708e-16
-4.5371e-17
6.90006e-17
-1.62376e-17
1.82103e-17
-4.74354e-19
-2.88994e-18
2.57101e-17
-1.00311e-16
2.65923e-16
-1.6294e-15
5.28327e-16
-1.07863e-14
4.43768e-16
-1.72065e-14
2.28848e-16
-3.09257e-14
-4.57745e-12
-4.42621e-14
-3.1995e-11
-5.55876e-14
-9.0181e-11
-5.55357e-14
-3.30283e-11
-4.61978e-14
-7.04904e-14
-2.50345e-11
-1.29202e-23
1.56641e-22
-4.95324e-22
4.39252e-21
-9.07994e-21
5.62672e-20
-8.83646e-20
4.08235e-19
-5.33438e-19
1.9231e-18
-2.15445e-18
6.2403e-18
-6.02543e-18
1.43009e-17
-1.18196e-17
2.32915e-17
-1.61747e-17
2.67039e-17
-1.50327e-17
2.08969e-17
-8.84774e-18
1.01213e-17
-2.48167e-18
1.26364e-18
2.91488e-18
-4.08828e-18
3.13072e-17
-5.67608e-17
5.10178e-16
-1.33153e-15
2.90627e-15
-1.18047e-14
4.51117e-15
-5.18439e-14
4.07911e-15
-7.49183e-14
3.51907e-15
-5.64343e-14
2.70724e-15
-7.16102e-14
2.06731e-15
-6.29662e-14
1.71694e-15
-6.26818e-14
-7.5852e-14
1.84019e-15
-3.62393e-24
2.66452e-23
-1.24383e-22
6.464e-22
-2.15638e-21
7.69994e-21
-1.98363e-20
5.23491e-20
-1.13039e-19
2.31637e-19
-4.29728e-19
7.05839e-19
-1.12756e-18
1.51909e-18
-2.06843e-18
2.32368e-18
-2.64045e-18
2.50216e-18
-2.27882e-18
1.8258e-18
-1.20454e-18
7.11628e-19
-1.62465e-19
-5.7877e-19
1.20297e-18
-3.26675e-18
1.12088e-17
-9.12605e-18
3.67883e-16
-2.03393e-16
4.35931e-15
-7.29607e-15
1.50946e-14
-5.37886e-14
1.7638e-14
-1.21714e-13
9.63622e-15
-1.3008e-13
6.73563e-15
-1.09935e-13
6.1627e-15
-7.29543e-14
6.21688e-15
-8.56893e-14
-1.19124e-13
8.01808e-15
-4.86587e-25
5.40448e-27
-1.51277e-23
7.27168e-26
-2.48436e-22
4.38269e-25
-2.16822e-21
1.38014e-24
-1.17272e-20
2.14934e-24
-4.22711e-20
2.25723e-25
-1.05115e-19
-1.62216e-23
-1.82666e-19
-1.16695e-22
-2.20838e-19
-2.79954e-22
-1.7928e-19
-9.04603e-22
-7.69449e-20
-3.16814e-20
1.58726e-19
-4.73969e-19
4.72045e-19
-1.54294e-18
1.30081e-18
-3.13479e-18
5.21084e-17
-3.09576e-18
2.08213e-15
-7.18086e-16
1.56985e-14
-1.93606e-14
2.16677e-14
-1.04761e-13
2.34882e-14
-1.17938e-13
1.86805e-14
-1.19633e-13
1.71044e-14
-1.15435e-13
1.78172e-14
-1.07907e-13
-1.13215e-13
2.11829e-14
-8.05834e-29
1.97891e-27
-1.44322e-27
2.59543e-26
-1.2161e-26
1.64377e-25
-4.95549e-26
5.71234e-25
-9.49363e-26
1.09816e-24
-1.18581e-26
4.69898e-25
1.29534e-24
-1.50093e-23
1.05084e-23
-9.20531e-23
2.99036e-23
-1.92147e-22
1.32155e-22
-2.96094e-22
5.75503e-21
-3.41525e-21
5.88867e-20
-8.1777e-20
1.7674e-19
-6.33889e-19
3.26238e-19
-2.03283e-18
7.15392e-19
-2.77415e-18
1.5914e-16
-2.89913e-18
3.64635e-15
-6.29763e-16
1.65905e-14
-8.64729e-15
1.94354e-14
-6.86684e-14
1.93717e-14
-7.06307e-14
1.84176e-14
-6.46381e-14
1.79407e-14
-5.35322e-14
-7.77149e-14
1.88728e-14
-2.50274e-29
4.75239e-28
-4.47724e-28
6.14177e-27
-3.99489e-27
4.12608e-26
-1.8027e-26
1.60671e-25
-4.27202e-26
3.96117e-25
-2.17684e-26
6.0897e-25
1.47071e-24
4.77357e-25
6.35035e-24
6.71721e-27
1.02675e-23
5.31781e-29
1.51295e-23
-1.86586e-26
2.88678e-22
-2.21952e-22
8.08872e-21
-1.35206e-20
6.91314e-20
-1.53365e-19
2.20316e-19
-7.3819e-19
2.86487e-19
-1.90739e-18
3.17026e-19
-2.32156e-18
6.15136e-17
-1.37258e-18
8.67885e-16
-9.00384e-19
6.7679e-15
-5.37007e-19
7.61406e-15
-6.74096e-15
3.915e-15
-3.00723e-15
3.98841e-15
-1.34098e-15
-2.48414e-15
6.40082e-15
-5.26747e-30
5.41784e-29
-9.38254e-29
6.7774e-28
-8.88762e-28
4.61563e-27
-4.48934e-27
1.83148e-26
-1.36203e-26
4.61777e-26
-2.48797e-26
7.29935e-26
-2.25991e-26
5.95859e-26
-3.61636e-28
6.73312e-28
-3.20931e-30
4.52537e-30
1.25542e-27
-9.19173e-29
1.67458e-23
-2.12351e-25
1.14572e-21
-7.76203e-22
1.35423e-20
-1.82106e-20
6.63098e-20
-1.44834e-19
1.74975e-19
-5.99581e-19
2.28986e-19
-1.51254e-18
6.82384e-20
-1.52338e-18
6.17781e-20
-1.01628e-18
6.09326e-20
-6.58518e-19
2.29173e-16
-9.46175e-19
4.39458e-17
-8.29395e-19
1.86975e-17
-7.12154e-19
-5.67038e-19
4.21813e-17
-5.36186e-31
2.94439e-36
-9.23022e-30
4.68756e-36
-8.82392e-29
1.60484e-38
-4.5206e-28
4.55364e-41
-1.39623e-27
-5.51087e-32
-2.61009e-27
-2.08102e-30
-2.45707e-27
-5.74718e-30
-3.14179e-29
-5.05157e-32
-2.35476e-31
-1.81215e-32
5.58527e-30
-1.38571e-30
1.33238e-26
-9.88529e-29
5.32397e-23
-2.24704e-24
1.32949e-21
-8.44065e-22
1.08952e-20
-1.37474e-20
4.57154e-20
-9.50777e-20
8.80731e-20
-3.76941e-19
1.33911e-19
-7.80274e-19
7.29901e-20
-9.97245e-19
6.16258e-20
-8.44027e-19
3.52731e-20
-8.188e-19
3.08703e-20
-7.5145e-19
2.98693e-20
-6.53231e-19
-5.09249e-19
2.78331e-20
-2.60512e-38
1.50315e-45
-5.64766e-38
9.51384e-46
-2.69232e-40
2.6807e-48
-9.79623e-43
6.25713e-51
2.84427e-33
-4.38305e-42
6.40289e-32
-3.56129e-37
2.02635e-31
-2.01417e-35
7.21844e-34
-1.32394e-36
7.93584e-34
-2.49397e-34
6.61144e-32
-1.2299e-32
5.1435e-30
-7.43426e-31
1.26423e-25
-2.7675e-28
5.05018e-23
-5.13228e-24
8.44963e-22
-4.24058e-22
5.87684e-21
-5.97003e-21
2.38805e-20
-3.72979e-20
6.14498e-20
-1.1191e-19
6.44544e-20
-3.08568e-19
6.18178e-20
-1.33978e-19
6.10104e-20
-1.59052e-19
5.51653e-20
-1.67606e-19
4.65734e-20
-2.10406e-19
-2.42162e-19
3.51382e-20
-1.17328e-47
1.72205e-45
-9.94203e-48
1.43415e-45
-3.85984e-50
3.05616e-48
-1.14558e-52
5.41632e-51
9.69161e-44
-1.47197e-47
9.13969e-39
-2.28587e-43
5.9045e-37
-1.85576e-41
2.16533e-38
-3.88119e-40
8.8828e-36
-6.16508e-38
4.73576e-34
-5.11586e-36
3.1039e-32
-4.53769e-34
1.23906e-29
-7.50367e-32
2.43412e-25
-2.30841e-27
2.08391e-23
-6.40426e-24
2.89535e-22
-1.06135e-22
1.67119e-21
-5.73905e-22
4.74621e-21
-1.85722e-21
9.43956e-21
-4.55992e-21
3.9925e-21
-7.44752e-21
5.00951e-21
-7.60644e-21
5.33149e-21
-5.22787e-21
7.3226e-21
-5.62083e-21
-6.48331e-21
7.99524e-21
-1.16201e-47
1.14021e-45
-1.26474e-47
1.26034e-45
-3.66097e-50
1.89787e-48
-8.16263e-53
2.41346e-51
2.65965e-49
-6.76793e-50
4.73277e-45
-3.07642e-46
4.22711e-43
-2.98437e-44
9.79823e-42
-7.79115e-43
1.72371e-39
-1.12161e-40
1.53266e-37
-8.95154e-39
1.4492e-35
-7.93912e-37
2.53807e-33
-9.40447e-35
8.19063e-29
-2.65454e-31
2.30785e-25
-3.55523e-27
3.60478e-24
-1.5978e-25
1.77475e-23
-1.37976e-24
5.26141e-23
-5.76132e-24
1.13869e-22
-1.55257e-23
1.44628e-22
-3.01693e-23
1.43545e-22
-4.46328e-23
9.62035e-23
-5.34072e-23
1.04461e-22
-5.56437e-23
-5.20862e-23
1.10775e-22
-6.45966e-48
2.69154e-46
-9.02413e-48
5.11077e-46
-1.81414e-50
5.11952e-49
-2.8634e-53
4.36017e-52
9.8424e-52
3.79851e-55
4.89634e-48
-2.31567e-54
5.18411e-46
-4.46725e-51
1.47759e-44
-1.34514e-49
2.30931e-42
-1.79229e-47
1.94323e-40
-2.02589e-45
1.80193e-38
-2.71461e-43
2.2139e-36
-3.62543e-41
6.41261e-33
-1.61715e-34
8.61579e-29
-5.37459e-30
3.66745e-27
-4.60283e-28
2.82253e-26
-4.12909e-27
1.01677e-25
-1.49354e-26
2.30986e-25
-3.30481e-26
3.72615e-25
-5.62452e-26
4.56104e-25
-8.19413e-26
4.50892e-25
-1.061e-25
3.9422e-25
-1.23936e-25
-1.32952e-25
2.8373e-25
-1.23668e-48
3.72469e-53
-2.82338e-48
2.55341e-56
-3.6746e-51
1.14026e-59
-3.8076e-54
5.25149e-63
-3.84882e-57
-1.06614e-57
4.38527e-56
-1.55491e-54
5.5444e-53
-1.73163e-52
1.77442e-51
-5.26955e-51
2.51453e-49
-8.92264e-49
2.88112e-47
-5.28538e-47
3.86319e-45
-2.87641e-45
5.11219e-43
-1.99332e-43
2.21858e-36
-1.61371e-41
6.99362e-32
-7.02873e-38
5.2771e-30
-3.00483e-34
3.74736e-29
-5.87821e-33
9.81776e-29
-6.82321e-31
1.42583e-28
-1.4916e-29
1.30312e-28
-1.02034e-28
4.26598e-29
-3.34457e-28
-1.27505e-28
-7.02829e-28
-3.67147e-28
-1.13436e-27
-1.57963e-27
-6.45219e-28
-1.2894e-55
-1.27648e-72
-9.78401e-59
-9.45993e-69
-5.47166e-62
-2.15984e-72
-2.97495e-65
-4.21196e-72
1.36018e-59
-2.42999e-60
1.60833e-56
-1.15076e-57
1.25414e-54
-9.01857e-56
3.89818e-53
-5.49039e-54
6.59082e-51
-4.90538e-52
3.64616e-49
-3.70333e-50
1.79511e-47
-3.53601e-48
1.06804e-45
-5.76572e-46
6.94848e-44
-7.60601e-43
1.98819e-40
-3.26956e-39
3.02958e-37
-2.61005e-36
-1.92545e-35
-3.28317e-35
-4.90589e-33
-6.70936e-34
-1.33606e-31
-4.48047e-32
-1.02621e-30
-6.16744e-31
-3.72031e-30
-2.98835e-30
-8.71491e-30
-7.75302e-30
-1.56872e-29
-1.40077e-29
-1.97244e-29
-2.59054e-29
2.84287e-75
3.12889e-72
1.96743e-71
-8.30062e-75
5.25025e-75
-3.93407e-77
1.67929e-74
-2.70069e-71
6.77973e-63
-2.01903e-65
3.11355e-60
-4.45923e-62
2.1889e-58
-4.40038e-60
1.0744e-56
-3.81431e-58
6.15202e-55
-4.04474e-56
1.10381e-53
-5.60292e-54
-3.66195e-50
-3.12002e-51
-1.23192e-48
-4.15951e-48
-4.65074e-43
-5.08882e-45
-6.80073e-40
-5.47158e-42
-1.77369e-38
-7.30877e-39
-2.44734e-37
-1.67496e-37
-2.84969e-35
-1.20937e-36
-1.46455e-33
-2.60674e-35
-1.64207e-32
-1.04285e-33
-7.17866e-32
-1.00223e-32
-1.86344e-31
-3.76352e-32
-3.43943e-31
-7.77733e-32
-9.27132e-32
-4.00577e-31
-3.05013e-75
6.56489e-72
3.27744e-78
2.73727e-78
2.32217e-81
2.87131e-78
-2.70137e-71
6.75843e-75
-1.12581e-67
-5.06981e-74
-5.08294e-65
-2.00044e-70
-7.41413e-63
-6.23382e-67
-9.97826e-61
-9.11032e-64
-2.66358e-57
-1.51613e-60
-2.21059e-56
-2.08482e-57
-8.75238e-52
-2.34119e-54
-3.74893e-48
-2.1714e-51
-5.01002e-45
-1.68245e-48
-2.5047e-42
-1.10572e-45
-2.50744e-40
-1.06014e-42
-2.17888e-39
-1.82794e-40
-2.21254e-38
-1.80811e-39
-1.87095e-36
-9.45915e-39
-5.52329e-35
-2.83046e-37
-4.23577e-34
-7.51072e-36
-1.53088e-33
-4.92426e-35
-2.15011e-33
-1.2507e-34
-1.7036e-33
4.97526e-33
-3.25159e-77
5.91601e-72
2.48284e-81
9.03027e-81
9.82489e-78
4.57426e-79
-1.22165e-76
-1.40578e-78
-3.96805e-74
-6.50718e-75
-1.55269e-70
-6.63007e-72
-3.23806e-69
-1.70253e-69
-7.64653e-64
-2.167e-67
-1.49128e-60
-2.97377e-65
-2.08198e-57
-5.03781e-63
-2.34253e-54
-1.67579e-60
-2.17361e-51
-9.19313e-58
-1.6846e-48
-5.23727e-55
-1.07844e-45
-2.69293e-52
-2.37397e-43
-1.24677e-49
-6.6379e-42
-9.15957e-47
-3.27829e-41
-3.28875e-45
-3.62339e-40
-7.38289e-45
-2.88528e-38
-5.73307e-43
-5.43076e-37
-1.30213e-40
-1.92851e-36
-2.65682e-38
-5.10314e-36
-4.70299e-36
-5.9359e-34
-9.74389e-34
2.07404e-84
1.30939e-99
5.33299e-82
-2.69923e-90
-2.90287e-81
-1.14953e-84
-1.38721e-78
-2.14663e-80
-1.129e-76
-9.18429e-77
-5.76299e-74
-4.86303e-74
-1.38315e-71
-1.42758e-71
-2.42389e-69
-3.02757e-69
-7.11314e-67
-5.17286e-67
-6.13583e-65
-6.88127e-65
-2.76382e-62
-8.02972e-63
-6.27256e-58
-1.02634e-60
-4.76453e-55
-2.08921e-58
-2.61974e-52
-6.13914e-56
-1.12614e-49
-2.09831e-53
-2.78058e-47
-6.94223e-51
-6.6613e-47
-2.10117e-48
-2.31476e-46
-5.46959e-46
-3.80457e-43
-1.27015e-43
-9.5999e-41
-2.77005e-41
-2.04999e-38
-5.37231e-39
-3.72498e-36
-9.27578e-37
-1.23515e-34
-4.69965e-34
-5.58618e-103
1.76632e-98
-2.69924e-90
1.10226e-95
-1.14953e-84
1.07192e-96
-2.14032e-80
-2.65225e-83
-5.33821e-79
-6.21472e-79
-3.43392e-76
-3.20602e-76
-1.26573e-73
-9.91647e-74
-3.50037e-71
-2.17378e-71
-6.87901e-69
-3.87524e-69
-1.00673e-66
-6.36313e-67
-1.40255e-64
-1.16765e-64
-6.05792e-62
-3.19927e-62
-4.93285e-60
-1.23955e-59
-5.93397e-57
-5.19433e-57
-1.08828e-53
-2.03059e-54
-4.92353e-51
-7.10924e-52
-1.66958e-48
-2.20423e-49
-4.54252e-46
-6.04906e-47
-1.07831e-43
-1.47316e-44
-2.40232e-41
-3.19007e-42
-4.73183e-39
-6.14095e-40
-8.269e-37
-1.05374e-37
-1.39922e-35
-1.10891e-34
-3.39171e-101
7.90622e-98
-2.80418e-98
5.31659e-95
-1.29291e-99
1.26783e-95
-2.65229e-83
3.96489e-88
-1.93259e-81
-3.45679e-82
-1.67729e-78
-2.60089e-79
-7.21217e-76
-9.48249e-77
-2.02207e-73
-2.73837e-74
-4.36159e-71
-7.15056e-72
-9.09314e-69
-2.23378e-69
-3.35966e-66
-1.0022e-66
-6.58546e-64
-5.73677e-64
-4.03258e-60
-3.29261e-61
-3.48308e-57
-1.69142e-58
-1.65921e-54
-7.56655e-56
-6.25939e-52
-2.93558e-53
-2.00708e-49
-9.90929e-51
-5.60544e-47
-2.9255e-48
-1.37946e-44
-7.59492e-46
-3.00815e-42
-1.74179e-43
-5.82083e-40
-3.53734e-41
-1.00303e-37
-6.38713e-39
-8.99406e-37
-1.33355e-35
-3.15293e-100
1.78772e-97
-3.16372e-97
1.0842e-94
-5.5763e-98
6.0324e-95
-9.5589e-91
3.07391e-90
1.20504e-85
-2.19207e-86
-5.33608e-82
-4.00042e-83
-4.1178e-79
-2.1307e-80
-1.72538e-76
-9.25878e-78
-7.23544e-74
-4.92937e-75
-3.61669e-71
-4.33144e-72
-1.52666e-68
-4.45633e-69
-2.50266e-64
-4.03327e-66
-2.43296e-61
-3.04718e-63
-1.46423e-58
-1.92061e-60
-6.9662e-56
-1.01997e-57
-2.77989e-53
-4.61259e-55
-9.52265e-51
-1.79294e-52
-2.83523e-48
-6.03744e-50
-7.40039e-46
-1.77299e-47
-1.70355e-43
-4.56668e-45
-3.46944e-41
-1.03593e-42
-6.27914e-39
-2.08046e-40
-3.2893e-38
-8.84691e-37
-1.27929e-99
1.64453e-97
-1.01205e-96
2.65731e-96
-4.47961e-97
1.18585e-94
-1.59178e-92
9.14687e-90
6.36978e-89
-7.75037e-91
2.48477e-86
-2.01564e-87
-3.67046e-83
-1.36354e-84
-4.99284e-79
-1.28485e-81
-2.98198e-77
-2.79292e-78
-3.10553e-73
-6.04442e-75
-2.77343e-69
-9.59488e-72
-3.34198e-66
-1.15043e-68
-2.77127e-63
-1.08684e-65