/*--------------------------------*- C++ -*----------------------------------*\
| =========                 |                                                 |
| \\      /  F ield         | OpenFOAM: The Open Source CFD Toolbox           |
|  \\    /   O peration     | Version:  2206                                  |
|   \\  /    A nd           | Website:  www.openfoam.com                      |
|    \\/     M anipulation  |                                                 |
\*---------------------------------------------------------------------------*/
FoamFile
{
    version     2.0;
    format      ascii;
    arch        "LSB;label=32;scalar=64";
    class       volScalarField;
    location    "0.45";
    object      p;
}
// * * * * * * * * * * * * * * * * * * * * * * * * * * * * * * * * * * * * * //

dimensions      [1 -1 -2 0 0 0 0];

internalField   nonuniform List<scalar> 
2268
(
989.771
990.253
991.028
991.742
992.24
992.572
992.906
993.388
994.102
995.095
996.393
998.012
999.976
1002.23
1004.77
1007.52
1010.35
1013.09
1015.48
1017.33
1018.47
1019.51
1020.35
930.484
930.957
931.764
932.503
933.023
933.371
933.715
934.203
934.924
935.924
937.222
938.817
940.681
942.853
945.305
948.007
950.88
953.763
956.395
958.469
959.84
960.888
962.052
870.741
871.209
872.072
872.855
873.422
873.805
874.173
874.679
875.417
876.437
877.757
879.378
881.295
883.489
885.925
888.556
891.31
894.09
896.794
899.322
901.611
903.745
905.594
810.511
810.971
811.914
812.759
813.4
813.843
814.254
814.794
815.567
816.624
817.984
819.646
821.598
823.813
826.269
828.911
831.674
834.476
837.25
839.998
842.767
845.463
847.617
749.747
750.223
751.198
752.149
752.896
753.428
753.909
754.512
755.346
756.465
757.887
759.608
761.616
763.886
766.38
769.061
771.871
774.743
777.605
780.417
783.203
785.903
788.16
688.358
688.868
689.871
690.961
691.848
692.509
693.097
693.794
694.721
695.93
697.436
699.237
701.317
703.651
706.202
708.925
711.766
714.656
717.519
720.265
722.814
725.063
726.669
626.246
626.813
627.909
629.204
630.264
631.08
631.81
632.638
633.69
635.015
636.626
638.519
640.677
643.075
645.672
648.42
651.243
654.051
656.722
659.07
660.787
661.378
660.19
563.279
563.919
565.177
566.868
568.173
569.158
570.037
571.035
572.259
573.742
575.486
577.488
579.731
582.187
584.811
587.532
590.257
592.849
595.105
596.766
597.149
596.07
584.806
402.082
304.381
239.842
235.313
264.685
303.946
394.756
604.963
804.98
763.651
655.154
662.693
784.2
911.933
984.149
970.21
858.063
854.809
1215.7
391.342
263.26
215.578
221.662
250.195
290.204
370.689
543.194
715.11
668.466
567.632
575.343
699.656
847.86
939.586
947.302
813.999
750.345
1143.37
371.879
242.163
207.548
218.361
247.969
286.341
340.538
468.716
581.126
536.462
454.827
461.052
569.508
726.39
852.452
908.373
774.201
647.921
1050.72
352.767
236.936
207.512
217.16
245.659
273.756
298.204
377.847
442.939
402.446
339.246
343.371
429.963
574.724
719.704
820.702
729.883
553.863
952.079
342.754
241.662
212.343
217.72
239.324
247.061
247.325
285.406
306.995
260.864
210.304
217.854
289.086
419.905
568.571
687.698
674.275
524.858
898.371
340.578
251.482
217.939
214.644
218.261
204.143
190.152
192.334
169.613
111.309
66.1539
71.5532
130.076
256.317
412.844
549.732
614.148
561.848
908.702
344.647
257.466
213.618
193.838
181.519
156.352
131.643
101.956
53.114
16.6419
5.25173
5.8721
16.4076
90.5163
250.726
415.681
553.671
624.985
989.636
332.59
243.996
187.05
161.238
142.415
109.438
76.2633
34.1701
7.3667
1.13168
0.242649
0.32981
1.28937
11.6083
102.005
281.466
487.832
694.329
1090.72
463.265
463.683
464.94
467.903
469.898
471.39
472.618
473.944
475.496
477.269
479.254
481.445
483.825
486.359
488.981
491.586
493.993
495.888
496.632
495.201
488.237
471.692
423.844
324.121
321.871
322.651
327.536
332.676
336.046
338.197
340.098
342.09
344.215
346.475
348.863
351.359
353.911
356.428
358.766
360.704
361.921
361.903
359.939
355.204
346.995
336.142
189.755
183.942
181.411
186.908
195.235
199.539
201.685
203.877
206.251
208.709
211.271
213.932
216.651
219.376
222.028
224.491
226.606
228.153
228.839
228.208
225.736
220.3
212.122
77.0118
71.7435
60.909
62.3724
69.8192
71.4933
71.5306
72.9027
74.7897
76.7415
78.8426
81.1234
83.5277
85.9971
88.4731
90.8744
93.0884
94.9663
96.3157
96.8805
96.3373
94.3174
90.6483
25.8396
13.1818
2.38632
3.99395
7.13444
6.77068
6.33469
6.53921
6.91093
7.37057
7.95006
8.63356
9.38667
10.1853
11.0133
11.8438
12.6474
13.4093
14.1038
14.6517
14.9077
14.896
14.4747
-1.22812
-1.29942
-1.27507
-1.20617
-1.15783
-1.14723
-1.14033
-1.13636
-1.13383
-1.13211
-1.13098
-1.13039
-1.13019
-1.13028
-1.13072
-1.13161
-1.13303
-1.13518
-1.13814
-1.14165
-1.14515
-1.14845
-1.14812
-1.27853
-1.29883
-1.28457
-1.28498
-1.27975
-1.27713
-1.27584
-1.27446
-1.27328
-1.27234
-1.27151
-1.27083
-1.27037
-1.27012
-1.27013
-1.27055
-1.2715
-1.27314
-1.2756
-1.27872
-1.28189
-1.28436
-1.28505
-1.40664
-1.41052
-1.42006
-1.43101
-1.42664
-1.42434
-1.42368
-1.42293
-1.42216
-1.42153
-1.421
-1.4206
-1.42038
-1.42041
-1.42078
-1.42169
-1.42341
-1.4262
-1.43009
-1.43492
-1.44019
-1.44476
-1.44805
-1.57385
-1.57418
-1.57215
-1.574
-1.5742
-1.57337
-1.57278
-1.57236
-1.57196
-1.57169
-1.57158
-1.57163
-1.5719
-1.57249
-1.57363
-1.57567
-1.57904
-1.58411
-1.59094
-1.59931
-1.60836
-1.61711
-1.62514
-1.72018
-1.71997
-1.7201
-1.72073
-1.72125
-1.72142
-1.72154
-1.72178
-1.72212
-1.72258
-1.7232
-1.72403
-1.72513
-1.72671
-1.72913
-1.73293
-1.73869
-1.7467
-1.75687
-1.76899
-1.78195
-1.79533
-1.80757
-1.86797
-1.8681
-1.86851
-1.86903
-1.86969
-1.8704
-1.87115
-1.87203
-1.87306
-1.87427
-1.87571
-1.87742
-1.87953
-1.88227
-1.88611
-1.89163
-1.89935
-1.90929
-1.92148
-1.93614
-1.95192
-1.96783
-1.98181
-2.01569
-2.01603
-2.01663
-2.01736
-2.01827
-2.01937
-2.02065
-2.02213
-2.02384
-2.02582
-2.02809
-2.03073
-2.03384
-2.03766
-2.0426
-2.04917
-2.05769
-2.06811
-2.08095
-2.09648
-2.1132
-2.12973
-2.14355
-2.16285
-2.16338
-2.16416
-2.16512
-2.16633
-2.1678
-2.16955
-2.17158
-2.17393
-2.17662
-2.17968
-2.18319
-2.18722
-2.19195
-2.19765
-2.20467
-2.21313
-2.2231
-2.23531
-2.24956
-2.26456
-2.27956
-2.29218
-2.3094
-2.31002
-2.31091
-2.31205
-2.3135
-2.31529
-2.31742
-2.31991
-2.3228
-2.32609
-2.32984
-2.3341
-2.33892
-2.34442
-2.35073
-2.35804
-2.36639
-2.37594
-2.38686
-2.39867
-2.41109
-2.42356
-2.43511
-2.4549
-2.45555
-2.45649
-2.45775
-2.4594
-2.46143
-2.46387
-2.46673
-2.47003
-2.47381
-2.47809
-2.48292
-2.48835
-2.49444
-2.50126
-2.5089
-2.5174
-2.52681
-2.53699
-2.54749
-2.55825
-2.56928
-2.58051
-2.599
-2.59963
-2.60059
-2.60195
-2.60374
-2.60595
-2.60862
-2.61174
-2.61534
-2.61945
-2.6241
-2.62931
-2.63512
-2.64157
-2.64871
-2.65657
-2.66516
-2.67451
-2.6845
-2.69486
-2.70532
-2.71613
-2.72705
-2.74146
-2.74206
-2.74305
-2.74447
-2.74635
-2.74869
-2.75151
-2.75481
-2.75861
-2.76294
-2.7678
-2.77323
-2.77925
-2.78587
-2.79313
-2.80104
-2.80961
-2.81881
-2.82861
-2.83893
-2.84956
-2.86029
-2.87148
-2.88218
-2.88275
-2.88376
-2.88522
-2.88716
-2.88959
-2.8925
-2.89592
-2.89985
-2.9043
-2.90929
-2.91484
-2.92096
-2.92766
-2.93496
-2.94286
-2.95136
-2.96046
-2.97012
-2.98032
-2.99097
-3.00203
-3.01359
-3.02112
-3.02167
-3.02269
-3.02417
-3.02615
-3.02862
-3.0316
-3.03508
-3.03908
-3.0436
-3.04866
-3.05427
-3.06044
-3.06718
-3.07449
-3.08238
-3.09085
-3.0999
-3.10953
-3.1197
-3.13041
-3.14165
-3.15345
-3.15824
-3.15877
-3.15979
-3.16128
-3.16328
-3.16577
-3.16878
-3.17229
-3.17632
-3.18087
-3.18597
-3.1916
-3.19778
-3.20453
-3.21184
-3.21972
-3.22818
-3.23721
-3.24682
-3.25701
-3.26776
-3.27911
-3.29105
-3.29349
-3.29401
-3.29502
-3.29651
-3.29851
-3.301
-3.30401
-3.30752
-3.31156
-3.31611
-3.3212
-3.32683
-3.333
-3.33973
-3.34702
-3.35488
-3.36331
-3.37232
-3.38192
-3.39211
-3.4029
-3.4143
-3.42632
-3.42681
-3.42732
-3.42832
-3.42981
-3.43179
-3.43428
-3.43727
-3.44076
-3.44477
-3.4493
-3.45436
-3.45995
-3.46609
-3.47277
-3.48001
-3.48782
-3.49621
-3.50517
-3.51474
-3.5249
-3.53568
-3.54709
-3.55914
-3.55819
-3.5587
-3.55968
-3.56115
-3.56311
-3.56557
-3.56853
-3.57199
-3.57595
-3.58043
-3.58543
-3.59096
-3.59703
-3.60364
-3.6108
-3.61852
-3.62682
-3.63571
-3.64519
-3.65528
-3.66599
-3.67735
-3.68936
-3.68763
-3.68813
-3.6891
-3.69054
-3.69247
-3.69489
-3.69779
-3.70119
-3.70509
-3.7095
-3.71442
-3.71985
-3.72582
-3.73231
-3.73936
-3.74696
-3.75513
-3.76389
-3.77323
-3.78319
-3.79377
-3.80501
-3.8169
-3.81515
-3.81564
-3.81659
-3.818
-3.81988
-3.82225
-3.82509
-3.82841
-3.83222
-3.83652
-3.84133
-3.84664
-3.85246
-3.85882
-3.8657
-3.87314
-3.88113
-3.8897
-3.89885
-3.90861
-3.91899
-3.93001
-3.9417
-3.9408
-3.94127
-3.94219
-3.94356
-3.94539
-3.94768
-3.95044
-3.95366
-3.95736
-3.96154
-3.9662
-3.97135
-3.97701
-3.98317
-3.98986
-3.99708
-4.00484
-4.01316
-4.02205
-4.03154
-4.04163
-4.05236
-4.06374
-4.06461
-4.06507
-4.06595
-4.06728
-4.06904
-4.07125
-4.07391
-4.07701
-4.08057
-4.0846
-4.08909
-4.09405
-4.0995
-4.10544
-4.11188
-4.11883
-4.1263
-4.13431
-4.14288
-4.15202
-4.16175
-4.17209
-4.18306
-4.18666
-4.1871
-4.18795
-4.18921
-4.1909
-4.19301
-4.19555
-4.19852
-4.20193
-4.20577
-4.21006
-4.2148
-4.22001
-4.22568
-4.23183
-4.23846
-4.24559
-4.25324
-4.26141
-4.27013
-4.2794
-4.28925
-4.2997
-4.30703
-4.30744
-4.30825
-4.30945
-4.31105
-4.31305
-4.31546
-4.31827
-4.3215
-4.32514
-4.3292
-4.33369
-4.33862
-4.34398
-4.3498
-4.35607
-4.36282
-4.37004
-4.37776
-4.38598
-4.39472
-4.404
-4.41384
-4.42579
-4.42619
-4.42694
-4.42807
-4.42957
-4.43145
-4.43371
-4.43635
-4.43938
-4.4428
-4.44661
-4.45082
-4.45544
-4.46047
-4.46591
-4.47179
-4.47809
-4.48485
-4.49205
-4.49972
-4.50787
-4.51651
-4.52566
-4.54306
-4.54342
-4.54413
-4.54517
-4.54657
-4.54832
-4.55042
-4.55287
-4.55568
-4.55886
-4.5624
-4.56631
-4.57059
-4.57525
-4.5803
-4.58574
-4.59157
-4.59781
-4.60446
-4.61153
-4.61903
-4.62697
-4.63536
-4.65894
-4.65926
-4.65991
-4.66087
-4.66215
-4.66376
-4.66569
-4.66794
-4.67053
-4.67344
-4.67669
-4.68028
-4.68421
-4.68848
-4.6931
-4.69807
-4.7034
-4.70909
-4.71515
-4.72158
-4.72839
-4.73559
-4.74318
-4.77353
-4.77381
-4.77439
-4.77526
-4.77642
-4.77788
-4.77963
-4.78168
-4.78403
-4.78667
-4.78962
-4.79286
-4.79642
-4.80028
-4.80445
-4.80894
-4.81374
-4.81886
-4.8243
-4.83006
-4.83616
-4.84258
-4.84934
-4.88694
-4.88716
-4.88769
-4.88847
-4.88951
-4.89081
-4.89238
-4.89421
-4.89631
-4.89867
-4.90131
-4.9042
-4.90737
-4.91081
-4.91453
-4.91851
-4.92277
-4.9273
-4.93211
-4.93719
-4.94255
-4.94819
-4.9541
-4.99931
-4.99949
-4.99995
-5.00063
-5.00155
-5.0027
-5.00408
-5.00569
-5.00754
-5.00962
-5.01193
-5.01448
-5.01725
-5.02027
-5.02351
-5.02698
-5.03069
-5.03463
-5.0388
-5.04319
-5.04781
-5.05266
-5.05773
-5.11078
-5.11088
-5.11129
-5.11188
-5.11267
-5.11367
-5.11486
-5.11626
-5.11785
-5.11965
-5.12164
-5.12383
-5.12621
-5.12879
-5.13156
-5.13453
-5.13768
-5.14103
-5.14456
-5.14827
-5.15216
-5.15622
-5.16045
-5.22134
-5.22136
-5.2217
-5.22221
-5.22287
-5.22372
-5.22473
-5.22591
-5.22726
-5.22877
-5.23044
-5.23227
-5.23426
-5.23641
-5.23872
-5.24118
-5.24379
-5.24655
-5.24945
-5.25249
-5.25566
-5.25896
-5.26238
-5.33099
-5.331
-5.33126
-5.3317
-5.33225
-5.33296
-5.33379
-5.33476
-5.33586
-5.33709
-5.33844
-5.33992
-5.34152
-5.34325
-5.34509
-5.34705
-5.34913
-5.35131
-5.35359
-5.35598
-5.35845
-5.36102
-5.36365
-5.44017
-5.4403
-5.4405
-5.44089
-5.44134
-5.44191
-5.44257
-5.44333
-5.44419
-5.44515
-5.44619
-5.44732
-5.44855
-5.44986
-5.45125
-5.45272
-5.45427
-5.45589
-5.45758
-5.45932
-5.46113
-5.46298
-5.46487
-5.54944
-5.54977
-5.5499
-5.55025
-5.55061
-5.55106
-5.55158
-5.55215
-5.55279
-5.55348
-5.55423
-5.55504
-5.55589
-5.5568
-5.55776
-5.55876
-5.55981
-5.5609
-5.56201
-5.56316
-5.56433
-5.56551
-5.5667
-5.65818
-5.65859
-5.65872
-5.65907
-5.65941
-5.65977
-5.66015
-5.66054
-5.66096
-5.6614
-5.66186
-5.66234
-5.66283
-5.66335
-5.66389
-5.66444
-5.665
-5.66557
-5.66614
-5.66671
-5.66727
-5.66782
-5.66834
-5.7639
-5.76517
-5.76547
-5.76585
-5.76613
-5.76638
-5.76659
-5.76677
-5.76694
-5.76709
-5.76722
-5.76734
-5.76745
-5.76755
-5.76763
-5.7677
-5.76774
-5.76776
-5.76776
-5.76772
-5.76765
-5.76754
-5.76738
257.855
410.931
420.45
354.322
294.139
289.128
285.102
239.967
179.039
156.702
144.219
114.071
77.7096
55.3302
36.9219
22.1685
10.3522
1.2152
-0.613083
-1.07594
-1.13723
-0.990235
-0.969139
-1.21687
-1.28385
-1.17184
-1.20766
-1.47207
-1.45004
-1.40597
-1.52481
-1.78674
-1.63189
-1.67283
-1.82333
-2.01047
-1.81776
-1.88581
-2.02379
-2.14711
-1.99397
-2.04927
-2.15832
-2.2428
-2.15845
-2.20543
-2.29162
-2.35565
-2.31192
-2.36053
-2.4293
-2.48314
-2.45939
-2.51049
-2.5683
-2.61952
-2.60617
-2.65778
-2.71064
-2.76105
-2.75182
-2.80435
-2.85488
-2.90598
-2.89776
-2.94735
-2.99928
-3.05279
-3.04061
-3.08967
-3.14324
-3.20013
-3.18097
-3.2305
-3.28604
-3.34683
-3.31894
-3.36934
-3.42694
-3.49177
-3.45448
-3.50577
-3.5653
-3.63389
-3.58742
-3.63941
-3.70053
-3.77229
-3.71761
-3.76996
-3.83216
-3.90623
-3.84491
-3.89718
-3.9598
-4.03516
-3.96924
-4.02091
-4.0832
-4.15872
-4.09058
-4.14104
-4.20218
-4.2767
-4.20898
-4.25752
-4.31657
-4.38848
-4.32434
-4.37068
-4.42678
-4.49499
-4.43702
-4.4806
-4.53311
-4.59665
-4.54719
-4.58758
-4.63595
-4.69404
-4.6551
-4.69196
-4.73576
-4.78784
-4.761
-4.7941
-4.83305
-4.87878
-4.86518
-4.89437
-4.92834
-4.9676
-4.96792
-4.99316
-5.02213
-5.05499
-5.06953
-5.09086
-5.11493
-5.14162
-5.17027
-5.18779
-5.20716
-5.22804
-5.27028
-5.28414
-5.29909
-5.31462
-5.3697
-5.38009
-5.39091
-5.40157
-5.46917
-5.47628
-5.48327
-5.48951
-5.56936
-5.57345
-5.57694
-5.57922
-5.66945
-5.67073
-5.67107
-5.66986
-5.7669
-5.76539
-5.76269
-5.75831
277.698
197.402
145.387
113.496
84.3051
48.9918
26.6877
4.25069
0.366804
-0.0684541
-0.0632782
0.0543697
0.264389
1.03929
12.0447
100.429
356.12
738.677
1206.74
182.556
124.988
80.2749
45.5736
27.2382
2.30132
-0.644621
-0.391387
-0.321227
-0.278274
-0.1709
-0.0642637
0.061573
0.257647
1.16915
12.5413
145.651
573.42
1105.85
77.4375
45.1809
25.86
1.68757
-1.12438
-0.761968
-0.762245
-0.687485
-0.587649
-0.490573
-0.392074
-0.267507
-0.11976
0.0437617
0.346599
1.91868
24.4424
291.172
833.776
8.52869
-1.23429
-1.50324
-1.11801
-1.06938
-0.986333
-0.930273
-0.878035
-0.809172
-0.719859
-0.598709
-0.448281
-0.286776
-0.128683
0.00959997
0.227012
1.98528
67.3356
548.524
-1.32441
-1.38721
-1.40776
-1.28827
-1.19771
-1.12838
-1.0716
-1.03494
-0.992426
-0.918895
-0.786302
-0.622871
-0.455225
-0.305832
-0.187422
-0.0731698
-0.204297
1.45578
346.564
-1.47741
-1.56806
-1.53914
-1.42958
-1.32448
-1.25814
-1.2075
-1.16405
-1.11375
-1.03968
-0.918362
-0.765104
-0.602524
-0.456358
-0.357443
-0.0895748
-0.404915
4.87648
221.407
-1.74003
-1.79775
-1.7042
-1.57957
-1.48119
-1.41331
-1.35183
-1.28655
-1.21152
-1.11551
-1.00248
-0.864379
-0.712073
-0.571325
-0.470917
-0.160789
0.322038
9.10463
134.289
-1.97761
-1.97615
-1.85644
-1.73949
-1.64947
-1.57607
-1.50383
-1.42295
-1.32755
-1.21308
-1.08372
-0.943105
-0.795226
-0.661994
-0.577257
-0.380306
0.566574
6.32246
75.6762
-2.10475
-2.07861
-1.98121
-1.88863
-1.81078
-1.73894
-1.66202
-1.57204
-1.46359
-1.33429
-1.188
-1.03379
-0.881553
-0.766105
-0.74975
-0.837812
-1.98624
5.58222
45.173
-2.18155
-2.16066
-2.09886
-2.03406
-1.97072
-1.90437
-1.82768
-1.73421
-1.61916
-1.48049
-1.32146
-1.15269
-0.99282
-0.880503
-0.948269
-1.14905
-0.385588
4.68991
28.9668
-2.27283
-2.26304
-2.22945
-2.18429
-2.13389
-2.07541
-2.00296
-1.91084
-1.79431
-1.65107
-1.48352
-1.30292
-1.12976
-1.01943
-1.07498
-1.45303
0.265283
3.77556
19.2503
-2.38572
-2.38658
-2.37013
-2.34089
-2.30313
-2.25469
-2.19012
-2.10391
-1.99069
-1.84715
-1.67445
-1.4834
-1.29266
-1.18293
-1.19109
-1.61302
-2.6325
-11.9997
18.3096
-2.51378
-2.52363
-2.51996
-2.50495
-2.48033
-2.44418
-2.39124
-2.31578
-2.21136
-2.07261
-1.89854
-1.6961
-1.4804
-1.35456
-1.3214
-1.62984
-1.70619
-4.52272
25.0138
-2.65213
-2.67025
-2.67793
-2.6766
-2.66635
-2.64524
-2.60811
-2.54895
-2.45978
-2.33206
-2.16302
-1.94813
-1.69564
-1.52983
-1.43778
-1.4874
-1.22934
-0.83001
30.5019
-2.79758
-2.82382
-2.84278
-2.85547
-2.86132
-2.8585
-2.84198
-2.8059
-2.74072
-2.63217
-2.481
-2.25515
-1.95014
-1.73394
-1.59105
-1.42508
-1.14926
-0.598971
35.5503
-2.94771
-2.98234
-3.01301
-3.04058
-3.06455
-3.08363
-3.09319
-3.08869
-3.05961
-2.9872
-2.87644
-2.65336
-2.28709
-2.05417
-1.89788
-1.59008
-1.27726
-0.578689
39.368
-3.10062
-3.14401
-3.18692
-3.23036
-3.27454
-3.3192
-3.36077
-3.39788
-3.41923
-3.40774
-3.38159
-3.18202
-2.7734
-2.6018
-2.46969
-2.01603
-1.62138
-0.938599
42.0968
-3.2546
-3.30702
-3.36256
-3.42275
-3.48896
-3.5625
-3.64208
-3.73099
-3.81869
-3.90386
-4.01285
-3.90477
-3.61161
-3.73757
-3.53863
-2.84253
-2.28374
-1.66443
44.3477
-3.40805
-3.46952
-3.53777
-3.61518
-3.70464
-3.80957
-3.93239
-4.08182
-4.25313
-4.47343
-4.7546
-4.97972
-5.21444
-5.88916
-5.44978
-4.25484
-3.33161
-2.9174
46.3603
-3.5595
-3.62967
-3.71026
-3.80471
-3.91766
-4.05522
-4.22473
-4.44087
-4.71214
-5.08869
-5.59213
-6.20804
-6.93144
-8.36375
-8.20679
-6.10453
-4.66327
-4.90633
48.4783
-3.70757
-3.78568
-3.87764
-3.98809
-4.12363
-4.29325
-4.51021
-4.79581
-5.17739
-5.72203
-6.48216
-7.25584
-8.38635
-10.4502
-10.9009
-8.02892
-6.01112
-7.37387
51.5826
-3.85103
-3.9359
-4.0376
-4.16207
-4.31793
-4.51697
-4.7787
-5.13134
-5.62523
-6.35279
-7.34292
-8.38433
-10.0867
-12.502
-12.9708
-9.98427
-6.90353
-9.61935
53.4652
-3.98879
-4.07882
-4.18807
-4.32366
-4.49601
-4.71966
-5.01977
-5.43135
-6.02927
-6.91347
-8.07694
-9.70671
-12.2858
-14.41
-14.3343
-11.426
-7.61257
-13.2377
55.0277
-4.12
-4.21326
-4.32742
-4.47046
-4.65402
-4.89529
-5.22377
-5.68032
-6.36304
-7.36218
-8.71085
-11.0662
-13.7171
-15.3537
-14.8531
-12.0486
-9.0183
-17.2916
53.4476
-4.2442
-4.33841
-4.45446
-4.60075
-4.78926
-5.0393
-5.38298
-5.8635
-6.60508
-7.69076
-9.16936
-11.6617
-14.0563
-15.3407
-14.7748
-11.9951
-9.25803
-14.5237
50.2983
-4.3613
-4.45393
-4.56853
-4.71367
-4.90041
-5.14936
-5.4944
-5.96858
-6.732
-7.86731
-9.44976
-11.794
-13.5787
-14.4566
-13.6674
-10.9292
-7.87179
-11.801
48.595
-4.46999
-4.5597
-4.67008
-4.80875
-4.98668
-5.22281
-5.54579
-6.00076
-6.73574
-7.85007
-9.53042
-11.4729
-12.6784
-13.1901
-12.495
-9.51506
-6.51391
-22.1441
39.6384
-4.572
-4.65651
-4.75965
-4.88783
-5.05068
-5.26426
-5.55187
-5.95894
-6.61531
-7.62002
-9.34013
-11.1452
-11.8652
-12.2875
-11.9425
-8.7986
-2.74507
-25.2122
13.8236
-4.66788
-4.74542
-4.83893
-4.95337
-5.0963
-5.28001
-5.52144
-5.85683
-6.39392
-7.1753
-8.32753
-10.9489
-11.554
-11.4556
-10.8439
-7.2002
6.85044
-5.01181
-3.81737
-4.75848
-4.82776
-4.90996
-5.00848
-5.12851
-5.27819
-5.46797
-5.72084
-6.12004
-6.69791
-7.35081
-9.3359
-13.194
-11.8108
-9.79168
-0.337651
3.42583
-2.2222
-4.16982
-4.84479
-4.90503
-4.97501
-5.05661
-5.15268
-5.26748
-5.4055
-5.57664
-5.82867
-6.19703
-6.52991
-6.93688
-8.59208
-9.13628
-6.18972
-0.698046
-2.70564
-4.66792
-4.34633
-4.9279
-4.97878
-5.03633
-5.1011
-5.17392
-5.25588
-5.3469
-5.44778
-5.5775
-5.74207
-5.78636
-5.58588
-5.57703
-5.12934
-4.49282
-4.42753
-4.61934
-4.76674
-4.57143
-5.00885
-5.05049
-5.09602
-5.14494
-5.19655
-5.24966
-5.30151
-5.34828
-5.3925
-5.42549
-5.36613
-5.14986
-5.0058
-4.67594
-4.77381
-4.79125
-4.78613
-4.88479
-4.74722
-5.08861
-5.12147
-5.15585
-5.19052
-5.22376
-5.25304
-5.27431
-5.28208
-5.27113
-5.22859
-5.1239
-4.9374
-4.66806
-4.42226
-4.50493
-4.74902
-4.83842
-4.8943
-4.84853
-5.16803
-5.19281
-5.21723
-5.23961
-5.25769
-5.26834
-5.26724
-5.24884
-5.20654
-5.12998
-5.00998
-4.84742
-4.6519
-4.51732
-4.58343
-4.75832
-4.86197
-4.92188
-4.92496
-5.24784
-5.2654
-5.2812
-5.29337
-5.2995
-5.29643
-5.28019
-5.24607
-5.1887
-5.1024
-4.98547
-4.84597
-4.70511
-4.62665
-4.67932
-4.80866
-4.91103
-4.97857
-4.99883
-5.32849
-5.33979
-5.34839
-5.35244
-5.34963
-5.33717
-5.31184
-5.27013
-5.20876
-5.12593
-5.0237
-4.91237
-4.81266
-4.76415
-4.80365
-4.90258
-4.99163
-5.05419
-5.07919
-5.41025
-5.41625
-5.41907
-5.41698
-5.40796
-5.38983
-5.36029
-5.31714
-5.25914
-5.18661
-5.10352
-5.01989
-4.95261
-4.9254
-4.9552
-5.02612
-5.09654
-5.14854
-5.17325
-5.49362
-5.49516
-5.4934
-5.48689
-5.47405
-5.45332
-5.42343
-5.38339
-5.3335
-5.27475
-5.21148
-5.15201
-5.10847
-5.09465
-5.11765
-5.16701
-5.2194
-5.25993
-5.28137
-5.57934
-5.5771
-5.57169
-5.56207
-5.5472
-5.5263
-5.49914
-5.46554
-5.42708
-5.38382
-5.33968
-5.30068
-5.27463
-5.26895
-5.28607
-5.31919
-5.35541
-5.38431
-5.4008
-5.66661
-5.66133
-5.65321
-5.64166
-5.62622
-5.60697
-5.58505
-5.56218
-5.53647
-5.50963
-5.4836
-5.46191
-5.44874
-5.44746
-5.45848
-5.4778
-5.4991
-5.51649
-5.52819
-5.75221
-5.74465
-5.73494
-5.72304
-5.70904
-5.69371
-5.67939
-5.66879
-5.65924
-5.64944
-5.64053
-5.63394
-5.63106
-5.6326
-5.63808
-5.64586
-5.65409
-5.65976
-5.66235
)
;

boundaryField
{
    leftWall
    {
        type            calculated;
        value           nonuniform List<scalar> 
50
(
989.771
930.484
870.741
810.511
749.747
688.358
626.246
563.279
463.265
324.121
189.755
77.0118
25.8396
-1.22812
-1.27853
-1.40664
-1.57385
-1.72018
-1.86797
-2.01569
-2.16285
-2.3094
-2.4549
-2.599
-2.74146
-2.88218
-3.02112
-3.15824
-3.29349
-3.42681
-3.55819
-3.68763
-3.81515
-3.9408
-4.06461
-4.18666
-4.30703
-4.42579
-4.54306
-4.65894
-4.77353
-4.88694
-4.99931
-5.11078
-5.22134
-5.33099
-5.44017
-5.54944
-5.65818
-5.7639
)
;
    }
    rightWall
    {
        type            calculated;
        value           nonuniform List<scalar> 
50
(
1215.7
1143.37
1050.72
952.079
898.371
908.702
989.636
1090.72
1206.74
1105.85
833.776
548.524
346.564
221.407
134.289
75.6762
45.173
28.9668
19.2503
18.3096
25.0138
30.5019
35.5503
39.368
42.0968
44.3477
46.3603
48.4783
51.5826
53.4652
55.0277
53.4476
50.2983
48.595
39.6384
13.8236
-3.81737
-4.16982
-4.34633
-4.57143
-4.74722
-4.84853
-4.92496
-4.99883
-5.07919
-5.17325
-5.28137
-5.4008
-5.52819
-5.66235
)
;
    }
    lowerWall
    {
        type            calculated;
        value           nonuniform List<scalar> 
62
(
1019.2
1019.68
1020.46
1021.17
1021.67
1022
1022.34
1022.82
1023.53
1024.52
1025.82
1027.44
1029.4
1031.66
1034.2
1036.95
1039.78
1042.52
1044.91
1046.76
1047.89
1048.94
1049.78
1020.35
962.052
905.594
847.617
788.16
726.669
660.19
584.806
320.452
473.528
483.047
416.919
402.082
391.342
371.879
352.767
342.754
340.578
344.647
332.59
410.718
313.017
248.473
243.48
274.196
313.965
406.077
621.925
826.163
787.107
680.591
688.557
809.72
935.332
999.192
982.057
876.693
880.657
1241.55
)
;
    }
    atmosphere
    {
        type            calculated;
        value           nonuniform List<scalar> 
46
(
-5.81249
-5.81756
-5.81715
-5.81741
-5.81758
-5.8177
-5.81778
-5.81782
-5.81783
-5.8178
-5.81775
-5.81766
-5.81755
-5.8174
-5.81722
-5.81701
-5.81676
-5.81647
-5.81615
-5.81577
-5.81535
-5.81487
-5.81434
-5.81297
-5.80998
-5.80573
-5.79986
-5.79259
-5.78425
-5.77436
-5.76324
-5.75138
-5.73992
-5.73126
-5.72904
-5.72904
-5.72904
-5.72904
-5.72904
-5.72904
-5.72904
-5.72905
-5.72905
-5.72904
-5.72904
-5.72904
)
;
    }
    defaultFaces
    {
        type            empty;
    }
}


// ************************************************************************* //
