/*--------------------------------*- C++ -*----------------------------------*\
| =========                 |                                                 |
| \\      /  F ield         | OpenFOAM: The Open Source CFD Toolbox           |
|  \\    /   O peration     | Version:  2206                                  |
|   \\  /    A nd           | Website:  www.openfoam.com                      |
|    \\/     M anipulation  |                                                 |
\*---------------------------------------------------------------------------*/
FoamFile
{
    version     2.0;
    format      ascii;
    arch        "LSB;label=32;scalar=64";
    class       volScalarField;
    location    "0.275";
    object      p_rgh;
}
// * * * * * * * * * * * * * * * * * * * * * * * * * * * * * * * * * * * * * //

dimensions      [1 -1 -2 0 0 0 0];

internalField   nonuniform List<scalar> 
2268
(
1470.95
1475.93
1479.18
1477.37
1469.52
1457.95
1445.11
1432.2
1419.79
1408.33
1398.5
1391.2
1387.7
1389.67
1399.44
1419.62
1452.02
1496.58
1547.37
1588.62
1593.71
1567.8
1612.35
1469.95
1475.08
1478.25
1476.35
1468.47
1456.93
1444.13
1431.25
1418.8
1407.26
1397.29
1389.82
1386.09
1387.69
1396.36
1413.94
1442.92
1484.41
1535.36
1580.53
1593.15
1555.27
1611.33
1467.95
1473.45
1476.39
1474.32
1466.37
1454.9
1442.19
1429.33
1416.81
1405.1
1394.87
1387.05
1382.86
1383.83
1391.67
1408.19
1434.68
1471.14
1514.89
1557.37
1583.01
1583.17
1633.88
1465.32
1470.78
1473.59
1471.29
1463.26
1451.89
1439.31
1426.47
1413.83
1401.85
1391.22
1382.87
1378.02
1378.14
1384.88
1399.81
1423.89
1456.66
1495
1533.28
1567.91
1596.31
1662.77
1461.83
1467.18
1469.91
1467.33
1459.2
1447.96
1435.52
1422.68
1409.85
1397.5
1386.32
1377.26
1371.53
1370.56
1375.92
1389.02
1410.61
1440.23
1475.34
1511.25
1549.26
1591.42
1667.8
1457.93
1462.87
1465.43
1462.51
1454.27
1443.17
1430.84
1417.96
1404.85
1392
1380.12
1370.17
1363.34
1361.03
1364.73
1375.78
1394.8
1421.39
1453.66
1487.45
1523.87
1565.77
1635.33
1453.45
1457.97
1460.18
1456.84
1448.52
1437.56
1425.34
1412.34
1398.85
1385.38
1372.64
1361.6
1353.43
1349.52
1351.29
1360.01
1376.3
1399.76
1428.76
1459.4
1489.9
1519.53
1549.52
1448.47
1452.56
1454.17
1450.31
1441.94
1431.18
1419.05
1405.87
1391.92
1377.7
1363.95
1351.64
1341.92
1336.13
1335.68
1341.8
1355.1
1375.24
1400.38
1426.42
1446.77
1457.12
1396.57
23.8562
23.7952
23.7303
23.6961
23.6716
23.6511
23.6369
23.6267
23.6167
23.605
23.5908
23.574
23.5554
23.5363
23.5179
23.5016
23.4884
23.4792
23.4744
23.8605
23.792
23.7256
23.6951
23.6706
23.6498
23.6362
23.6265
23.6169
23.6053
23.5911
23.5741
23.5553
23.536
23.5174
23.5008
23.4875
23.4781
23.4733
23.8683
23.7842
23.7153
23.6933
23.6686
23.6473
23.6348
23.6262
23.6175
23.6062
23.592
23.5746
23.5553
23.5353
23.5161
23.499
23.4852
23.4755
23.4705
23.8809
23.7644
23.6974
23.6922
23.6652
23.6431
23.6326
23.626
23.6184
23.6077
23.5933
23.5755
23.5553
23.5344
23.5142
23.4963
23.4817
23.4714
23.4661
23.907
23.7215
23.6689
23.6938
23.6599
23.6372
23.6298
23.6258
23.6198
23.6098
23.5952
23.5766
23.5553
23.5331
23.5117
23.4925
23.4769
23.4659
23.4602
23.9521
23.6657
23.6307
23.7001
23.6512
23.6291
23.6263
23.6257
23.6219
23.6127
23.5978
23.5782
23.5554
23.5315
23.5083
23.4875
23.4706
23.4587
23.4525
24.0741
23.6932
23.5954
23.7119
23.6377
23.6186
23.6221
23.6262
23.625
23.6166
23.6012
23.5802
23.5555
23.5294
23.5041
23.4814
23.4628
23.4497
23.443
24.3273
23.5925
23.5692
23.7258
23.6196
23.6056
23.6174
23.6274
23.6292
23.6217
23.6055
23.5827
23.5556
23.5269
23.499
23.4739
23.4534
23.4389
23.4315
1439.96
1443.32
1443.78
1439.11
1430.64
1420.07
1407.93
1394.29
1379.4
1363.78
1348.18
1333.54
1320.97
1311.74
1307.28
1308.83
1316.94
1331.57
1350.39
1367.69
1366.02
1317.83
1014.36
1426.64
1428.99
1427.78
1421.83
1412.88
1402
1389.14
1374.14
1357.17
1338.72
1319.54
1300.52
1282.75
1267.51
1256.3
1250.35
1249.54
1253.62
1261.18
1265.46
1247.94
1185.65
1043.29
1412.33
1413.33
1409.87
1402.35
1392.69
1381.02
1366.81
1349.77
1330.03
1308.03
1284.57
1260.5
1236.81
1214.72
1195.27
1179.96
1172.16
1173.02
1173.87
1179.45
1179.74
1154.53
1106.41
1397.63
1396.24
1390.21
1381.28
1370.75
1357.73
1341.65
1322.23
1299.45
1273.48
1245.23
1214.73
1181.75
1147.03
1104.68
1036.23
948.234
854.987
862.449
935.975
1066.46
1089.91
1087.66
1383.16
1378.81
1370.31
1360.19
1348.47
1333.09
1314.48
1292.09
1265.36
1233.23
1187.77
1104.33
954.234
729.693
486.428
283.988
151.688
83.8171
83.2122
112.147
197.811
380.271
643.666
1370.54
1362.18
1348.76
1337.26
1324.23
1299.42
1254.4
1173.44
1042.74
837.37
560.622
311.07
70.0208
-1.0225
-1.3992
-1.34792
-1.28964
-1.24497
-1.11199
-0.711079
-0.0692202
0.482662
19.3585
1336.58
1045.36
977.73
944.706
853.955
680.837
488.39
301.593
133.568
-1.2213
-1.48169
-1.65683
-1.65892
-1.64037
-1.65834
-1.63116
-1.54444
-1.45023
-1.37222
-1.09603
-0.731217
-0.493423
-0.295586
510.084
123.422
71.989
52.755
9.20125
-1.69027
-1.83117
-1.85102
-1.8334
-1.73841
-1.75798
-1.79907
-1.84909
-1.89437
-1.85692
-1.9275
-1.87062
-1.76837
-1.68958
-0.0606052
1.52986
1.35397
0.707624
-1.99561
-1.99519
-1.95622
-1.92821
-1.8824
-1.86065
-1.87305
-1.87784
-1.87475
-1.86321
-1.88598
-1.95305
-2.05797
-1.88489
-1.68995
-1.96672
-2.36403
-2.17971
-1.64725
1.00418
0.859563
0.485124
-0.0522193
-2.00534
-1.98266
-1.97346
-1.962
-1.9466
-1.93677
-1.9385
-1.94608
-1.95955
-1.99262
-2.0614
-2.171
-1.75213
-1.83918
-2.16794
-2.27193
-2.80007
-2.51427
-0.760539
0.848264
0.519312
-1.83023
-3.63213
-2.04082
-2.01903
-2.01854
-2.01627
-2.01276
-2.01472
-2.02389
-2.03942
-2.06785
-2.12542
-2.2232
-2.31893
-1.71222
-2.06773
-2.3659
-2.93555
-2.95565
-2.12586
0.13464
0.228512
-2.52124
-3.50272
-3.66228
-2.08029
-2.07332
-2.07203
-2.07429
-2.07903
-2.08958
-2.10709
-2.13219
-2.17293
-2.24329
-2.35223
-2.50405
-2.29345
-2.07936
-2.47363
-2.48467
-1.08611
-0.386144
-0.471246
-2.72558
-3.38895
-3.52519
-3.66246
-2.11743
-2.11872
-2.12191
-2.12998
-2.1421
-2.16049
-2.18635
-2.22101
-2.27063
-2.34465
-2.4457
-2.59486
-2.77616
-2.11007
-1.78665
-1.20217
-1.12367
-1.65711
-3.17951
-3.30011
-3.42749
-3.55927
-3.69283
-2.15696
-2.16402
-2.17044
-2.18299
-2.20094
-2.22582
-2.25882
-2.30133
-2.35693
-2.43073
-2.52713
-2.65197
-2.79146
-2.89096
-2.57414
-2.34996
-3.14652
-3.18007
-3.24889
-3.35953
-3.48905
-3.62599
-3.76623
-2.1965
-2.20632
-2.21542
-2.23144
-2.25385
-2.28375
-2.32231
-2.37074
-2.43102
-2.50534
-2.59508
-2.70177
-2.81627
-2.93203
-3.03442
-3.10733
-3.16562
-3.23439
-3.32727
-3.44725
-3.58351
-3.72824
-3.87863
-2.23367
-2.24433
-2.25563
-2.27426
-2.30003
-2.33368
-2.37629
-2.42884
-2.49247
-2.56809
-2.6552
-2.75268
-2.85618
-2.95977
-3.05708
-3.14411
-3.22713
-3.31945
-3.42917
-3.55775
-3.70191
-3.85827
-4.02437
-2.26662
-2.2772
-2.29021
-2.31081
-2.33906
-2.37551
-2.42102
-2.47639
-2.5423
-2.61903
-2.70574
-2.80078
-2.90123
-3.00347
-3.10438
-3.20322
-3.30451
-3.41437
-3.53879
-3.68039
-3.8387
-4.01256
-4.19994
-2.29387
-2.30413
-2.31843
-2.34055
-2.37068
-2.40928
-2.45704
-2.51458
-2.58234
-2.66038
-2.74793
-2.84351
-2.94487
-3.04989
-3.15764
-3.26843
-3.38504
-3.51198
-3.65352
-3.81233
-3.98952
-4.18593
-4.40016
-2.31451
-2.32446
-2.33971
-2.36302
-2.39463
-2.43496
-2.48459
-2.54401
-2.61359
-2.69328
-2.7825
-2.88007
-2.98452
-3.09472
-3.21057
-3.33324
-3.46509
-3.60929
-3.76917
-3.94776
-4.14771
-4.37178
-4.6195
-2.32789
-2.33763
-2.35358
-2.37784
-2.41064
-2.45239
-2.50362
-2.56476
-2.63613
-2.71772
-2.8091
-2.90951
-3.01811
-3.13457
-3.2594
-3.39398
-3.54048
-3.70169
-3.88067
-4.08094
-4.30648
-4.5619
-4.84856
-2.33354
-2.34316
-2.35963
-2.38465
-2.41842
-2.46135
-2.51395
-2.57664
-2.64974
-2.73332
-2.82714
-2.93079
-3.04399
-3.16697
-3.30066
-3.44673
-3.60734
-3.78508
-3.98314
-4.20572
-4.45805
-4.74635
-5.07438
-2.33108
-2.34065
-2.35751
-2.38313
-2.41768
-2.46159
-2.51532
-2.57935
-2.65403
-2.73952
-2.83577
-2.94271
-3.06048
-3.18973
-3.33176
-3.48844
-3.66211
-3.85532
-4.07154
-4.31563
-4.59392
-4.91391
-5.28181
-2.32024
-2.3298
-2.34696
-2.37303
-2.40819
-2.45284
-2.50746
-2.57256
-2.64854
-2.73569
-2.83414
-2.94407
-3.06595
-3.20079
-3.35017
-3.51622
-3.70143
-3.90844
-4.14102
-4.40452
-4.70596
-5.05358
-5.45525
-2.30084
-2.31039
-2.32776
-2.35415
-2.38971
-2.43486
-2.49008
-2.5559
-2.6328
-2.72119
-2.82136
-2.93372
-3.05898
-3.19839
-3.35379
-3.52754
-3.72226
-3.94084
-4.18727
-4.4672
-4.78794
-5.1577
-5.58461
-2.27278
-2.2823
-2.29978
-2.32634
-2.3621
-2.40747
-2.46293
-2.52906
-2.60639
-2.69545
-2.79668
-2.91065
-3.03828
-3.18099
-3.34077
-3.52016
-3.72199
-3.9494
-4.20662
-4.49947
-4.83543
-5.22229
-5.66764
-2.23603
-2.24548
-2.26297
-2.28952
-2.32526
-2.37054
-2.42586
-2.4918
-2.56898
-2.658
-2.75946
-2.87406
-3.00282
-3.1473
-3.30958
-3.49231
-3.69848
-3.93156
-4.19604
-4.49798
-4.84494
-5.2445
-5.70427
-2.19061
-2.19995
-2.21733
-2.24371
-2.27915
-2.32402
-2.37877
-2.444
-2.52036
-2.60855
-2.70928
-2.82334
-2.95184
-3.09638
-3.25908
-3.44263
-3.65014
-3.88539
-4.15318
-4.45987
-4.81308
-5.22054
-5.69075
-2.13665
-2.14581
-2.16295
-2.18895
-2.22385
-2.26795
-2.32169
-2.38565
-2.46051
-2.547
-2.64593
-2.75818
-2.8849
-3.02766
-3.18856
-3.37026
-3.57598
-3.80968
-4.07635
-4.38263
-4.73655
-5.14636
-5.62
-2.07432
-2.08324
-2.1
-2.12542
-2.15949
-2.20247
-2.25475
-2.31687
-2.38951
-2.47344
-2.56949
-2.67861
-2.80195
-2.94102
-3.09783
-3.27495
-3.47562
-3.70393
-3.96458
-4.26454
-4.61202
-5.01554
-5.48827
-2.00391
-2.0125
-2.02875
-2.05337
-2.08632
-2.12781
-2.17818
-2.2379
-2.30763
-2.38813
-2.48025
-2.58494
-2.70334
-2.83683
-2.98731
-3.1571
-3.34933
-3.56804
-3.81804
-4.10579
-4.4392
-4.82761
-5.2868
-1.92578
-1.93396
-1.94955
-1.97315
-2.00469
-2.04433
-2.09234
-2.14914
-2.21531
-2.29158
-2.37879
-2.47782
-2.58982
-2.71587
-2.85785
-3.01779
-3.19854
-3.40378
-3.63811
-3.9074
-4.21894
-4.58206
-5.01319
-1.8403
-1.84797
-1.86276
-1.88512
-1.91497
-1.95241
-1.99765
-2.05104
-2.11307
-2.1844
-2.26582
-2.35803
-2.46225
-2.57942
-2.71097
-2.85873
-3.02516
-3.21349
-3.42772
-3.67287
-3.95513
-4.2829
-4.67124
-1.74789
-1.75498
-1.76882
-1.78973
-1.8176
-1.85251
-1.89459
-1.9441
-2.00146
-2.0672
-2.14201
-2.22662
-2.32191
-2.42876
-2.5483
-2.68198
-2.83182
-3.00041
-3.19098
-3.4074
-3.65443
-3.93871
-4.2722
-1.64922
-1.65566
-1.66841
-1.68767
-1.71329
-1.74534
-1.78388
-1.8291
-1.88131
-1.94093
-2.00852
-2.08471
-2.17018
-2.26564
-2.37191
-2.49006
-2.62158
-2.7684
-2.93282
-3.11747
-3.32546
-3.5613
-3.83302
-1.54517
-1.55092
-1.56245
-1.57987
-1.603
-1.6319
-1.66658
-1.70715
-1.75382
-1.8069
-1.8668
-1.934
-2.00899
-2.09228
-2.18438
-2.28601
-2.39811
-2.52193
-2.65887
-2.81034
-2.97791
-3.16389
-3.37255
-1.43593
-1.44098
-1.45118
-1.46662
-1.48706
-1.51259
-1.54314
-1.5788
-1.61966
-1.66591
-1.71782
-1.77569
-1.83984
-1.91054
-1.98805
-2.07271
-2.16499
-2.26551
-2.37484
-2.49337
-2.62132
-2.75916
-2.9081
-1.32067
-1.32504
-1.33381
-1.34715
-1.36475
-1.38668
-1.41289
-1.4434
-1.47823
-1.51745
-1.56117
-1.60955
-1.6627
-1.7207
-1.78357
-1.85135
-1.9241
-2.00193
-2.08474
-2.17211
-2.26324
-2.35716
-2.45301
-1.20024
-1.20394
-1.21124
-1.22236
-1.23694
-1.25509
-1.27674
-1.30187
-1.33044
-1.3624
-1.39776
-1.43649
-1.47855
-1.52384
-1.5722
-1.62341
-1.67727
-1.7335
-1.79154
-1.85041
-1.90863
-1.96436
-2.01556
-1.08014
-1.08326
-1.08906
-1.09792
-1.10944
-1.12374
-1.14076
-1.16042
-1.18263
-1.20729
-1.23426
-1.2634
-1.2945
-1.32732
-1.36152
-1.39673
-1.43251
-1.46833
-1.50331
-1.53617
-1.56511
-1.58795
-1.60227
-0.964951
-0.967631
-0.971992
-0.978646
-0.987235
-0.997827
-1.01034
-1.0247
-1.04077
-1.0584
-1.07737
-1.09742
-1.11825
-1.13947
-1.16063
-1.18119
-1.2005
-1.21778
-1.2319
-1.24138
-1.24434
-1.23867
-1.22215
-0.843907
-0.846259
-0.849279
-0.853753
-0.859412
-0.866281
-0.874273
-0.883304
-0.893237
-0.903889
-0.915023
-0.926336
-0.937457
-0.947931
-0.957201
-0.964593
-0.969298
-0.970328
-0.966458
-0.956206
-0.937896
-0.909732
-0.870041
-0.690258
-0.692704
-0.694178
-0.6961
-0.698304
-0.700794
-0.703497
-0.706312
-0.709104
-0.711697
-0.713863
-0.715307
-0.715651
-0.714425
-0.711049
-0.704812
-0.694867
-0.680249
-0.659936
-0.6329
-0.598136
-0.55467
-0.501741
464.176
518.268
469.536
56.2625
845.732
752.5
640.503
563.066
1023.99
948.426
883.355
852.766
1055.47
1025.29
999.99
985.547
914.889
1078.12
1075.73
1072.63
66.6484
139.908
235.492
354.177
-0.241182
-1.54777
-2.1786
-2.33176
-0.740494
-3.06781
-3.43399
-3.63406
-2.02146
-3.86664
-4.0144
-4.12863
-3.80322
-3.90183
-3.99897
-4.07093
-3.78552
-3.85943
-3.92085
-3.9732
-3.76226
-3.82257
-3.87699
-3.92661
-3.78767
-3.84739
-3.90582
-3.96285
-3.86849
-3.93391
-3.99983
-4.06628
-3.99128
-4.06512
-4.1411
-4.21894
-4.15241
-4.23802
-4.32729
-4.41918
-4.34744
-4.44722
-4.55168
-4.65952
-4.57157
-4.68827
-4.81005
-4.9356
-4.82206
-4.96117
-5.1078
-5.26045
-5.08856
-5.25547
-5.43525
-5.62686
-5.35458
-5.55158
-5.76624
-6.00008
-5.60092
-5.82716
-6.07548
-6.35245
-5.80565
-6.05435
-6.32845
-6.6372
-5.9553
-6.21663
-6.5032
-6.82203
-6.05117
-6.31909
-6.61013
-6.9285
-6.09866
-6.37237
-6.66779
-6.98665
-6.09604
-6.37745
-6.681
-7.00664
-6.03437
-6.32403
-6.63837
-6.97716
-5.90532
-6.19936
-6.52218
-6.87372
-5.69548
-5.98601
-6.30801
-6.66022
-5.39831
-5.67325
-5.97924
-6.31349
-5.01645
-5.26241
-5.53541
-5.83181
-4.56422
-4.77031
-4.99662
-5.23944
-4.06503
-4.22611
-4.39989
-4.58306
-3.54456
-3.66134
-3.78445
-3.9113
-3.02509
-3.10218
-3.181
-3.25963
-2.52289
-2.56677
-2.60938
-2.64934
-2.04741
-2.06511
-2.0798
-2.09055
-1.60425
-1.60217
-1.59647
-1.58658
-1.20035
-1.18321
-1.16278
-1.1387
-0.831657
-0.804084
-0.773666
-0.740156
-0.455857
-0.42439
-0.391074
-0.35598
70.1629
22.3593
23.4455
23.7464
23.5905
23.5811
23.6092
23.6312
23.6384
23.632
23.6138
23.5874
23.5558
23.5222
23.4894
23.4598
23.4358
23.4189
23.4102
516.914
52.527
28.9824
23.889
23.4978
23.493
23.5965
23.6468
23.6614
23.6542
23.6307
23.5966
23.5561
23.5131
23.471
23.4332
23.4025
23.381
23.37
797.71
723.069
433.551
58.9219
23.2023
23.2527
23.6001
23.6932
23.7039
23.6882
23.6543
23.6087
23.5558
23.4999
23.4453
23.3965
23.357
23.3294
23.3153
951.88
912.148
881.251
791.32
286.829
34.8301
23.8775
23.8147
23.7693
23.7348
23.6847
23.623
23.5537
23.4806
23.4095
23.3462
23.2953
23.2599
23.2419
1068.16
1050.84
1026.5
1015.18
1002.18
538.818
51.2961
24.133
23.8429
23.7802
23.72
23.6385
23.5472
23.4519
23.3595
23.2777
23.2124
23.1673
23.1443
572.517
1093.22
1170.59
1155.14
1140.42
1134.91
684.936
66.6876
24.1971
23.8853
23.7563
23.6521
23.5337
23.4087
23.289
23.1842
23.1012
23.0443
23.0155
2.68429
100.931
286.865
911.161
1264.05
1225.93
1213.08
680.944
55.4693
24.6833
23.8806
23.6501
23.5041
23.3434
23.1887
23.056
22.9523
22.8817
22.8464
-3.93108
-4.1751
-3.85226
17.6279
328.714
1225.94
1292.9
1219.86
476.058
32.9972
24.8291
23.6997
23.4487
23.2428
23.045
22.8796
22.7532
22.6682
22.626
-4.20902
-4.39228
-4.40154
-4.40601
-4.23894
380.148
1259.79
1288.6
975.283
180.159
29.0073
24.3298
23.4276
23.0943
22.8377
22.6368
22.4882
22.3899
22.3415
-4.1566
-4.28068
-4.40515
-4.49779
-4.65803
-4.13748
770.016
1334.06
1249.98
444.042
36.94
25.6781
23.444
22.8516
22.532
22.3033
22.1389
22.0318
21.9797
-4.05123
-4.17047
-4.33716
-4.49317
-4.63448
-4.64925
157.862
1209.2
1245.08
782.773
86.7454
27.42
23.4264
22.457
22.0857
21.8526
21.687
21.5802
21.5285
-4.00394
-4.13124
-4.3095
-4.50279
-4.66361
-4.79383
-3.73995
877.175
1272.37
989.843
162.138
29.1984
23.2065
21.8506
21.4704
21.2659
21.12
21.026
20.9804
-4.05724
-4.20802
-4.39405
-4.58946
-4.75974
-4.99291
-5.12651
529.123
1278.16
1067.92
256.17
29.9969
22.5645
20.9991
20.6834
20.542
20.4374
20.369
20.3355
-4.17754
-4.36246
-4.57883
-4.78599
-4.96026
-5.19835
-5.53173
299.805
1237.46
1090.32
296.638
29.2795
21.4236
19.9374
19.759
19.702
19.6537
19.6199
19.6025
-4.35135
-4.57154
-4.80769
-5.03172
-5.2339
-5.38046
-5.50583
225.115
1178.8
1050.97
291.774
27.2439
19.9064
18.7635
18.7483
18.7803
18.7943
18.7981
18.7982
-4.57792
-4.83405
-5.08481
-5.30711
-5.52952
-5.62961
-5.56393
271.289
1141.34
958.687
223.324
23.9984
18.2389
17.595
17.7114
17.8202
17.8902
17.928
17.9444
-4.8479
-5.14851
-5.26453
-5.44672
-5.85516
-5.97613
-5.79092
347.131
1106.45
812.419
113.111
20.5987
16.729
16.5141
16.6971
16.8601
16.9704
17.034
17.0633
-5.15237
-5.48233
-5.39461
-5.66208
-6.20541
-6.45277
-4.51399
493.865
1091.99
629.252
50.4052
17.7542
15.5457
15.5113
15.7292
15.9235
16.0566
16.1369
16.1751
-5.52652
-5.92963
-6.03673
-6.13757
-6.6215
-6.89348
185.127
811.189
1090.31
409.241
23.9459
15.4277
14.4603
14.5719
14.8145
15.0199
15.1626
15.2518
15.2949
-5.98269
-6.56472
-7.02649
-6.70087
-7.24869
33.7611
757.46
887.167
776.792
188.986
18.2229
13.7503
13.5478
13.705
13.9502
14.1529
14.2967
14.3884
14.4332
-6.44834
-7.16204
-8.05255
-7.1687
-2.83912
421.44
807.296
827.59
322.594
46.1354
15.7799
12.9126
12.7291
12.895
13.1321
13.3244
13.4632
13.5526
13.5965
-6.87355
-7.70426
-8.84386
-1.11671
215.633
612.602
670.453
337.121
39.721
19.7203
14.6749
12.2995
11.9584
12.1381
12.3586
12.5349
12.6636
12.7468
12.7879
-7.20869
-8.27163
-9.50099
-11.095
344.732
545.868
245.994
37.2294
19.5651
13.0082
11.5758
11.3522
11.2415
11.4312
11.6266
11.7825
11.8968
11.9714
12.0085
-7.40794
-8.51638
-9.43727
-10.985
367.197
575.229
226.964
19.153
12.9092
10.8551
10.2948
10.3784
10.5897
10.7691
10.9317
11.0628
11.1601
11.2246
11.257
-7.50872
-8.52406
-9.24326
-10.45
333.521
591.777
593.692
44.6047
10.6129
9.84484
9.73851
9.84475
9.99867
10.141
10.266
10.3698
10.4491
10.503
10.5308
-7.5619
-8.50446
-9.20799
-10.1029
32.1608
584.965
589.825
80.1701
9.61287
9.36395
9.27396
9.35588
9.44029
9.5299
9.61814
9.69602
9.75823
9.80221
9.82634
-7.59074
-8.53816
-9.51193
-9.04415
-9.70416
575.001
595.337
590.433
44.4111
9.17897
8.81834
8.82998
8.87438
8.92058
8.97779
9.03415
9.08218
9.11756
9.14001
-7.5871
-8.60994
-9.78703
-9.78693
-10.2908
471.495
607.871
624.628
53.9113
9.3594
8.30903
8.28339
8.29446
8.30279
8.33695
8.37787
8.41641
8.44367
8.47023
-7.51886
-8.69877
-10.0794
-10.8673
-11.6408
122.507
623.668
628.728
585.108
53.7814
7.99717
7.72187
7.67819
7.6641
7.68766
7.72151
7.75742
7.77658
7.81513
-7.31796
-8.58322
-10.1666
-11.5979
-8.74689
-14.7351
609.361
634.142
656.039
86.1772
7.09993
6.94525
6.95775
6.98054
7.02066
7.06107
7.10398
7.11917
7.16679
-6.94248
-8.17046
-9.82317
-12.0511
-12.3814
8.3063
187.275
564.226
400.896
79.1243
7.06231
6.10717
6.14503
6.25332
6.33741
6.40022
6.45167
6.47401
6.52442
-6.3881
-7.46523
-8.97491
-11.2798
-13.7987
-8.20925
-8.55822
90.6205
26.0365
27.0964
6.1227
5.07451
5.31452
5.52137
5.65537
5.74527
5.80957
5.8407
5.89023
-5.68996
-6.53261
-7.70218
-9.48864
-12.164
-10.236
-8.42856
-7.17671
-0.419399
0.918426
3.24014
4.06962
4.54269
4.81998
4.99439
5.10702
5.18258
5.22249
5.26782
-4.91658
-5.50687
-6.26957
-7.32898
-8.67308
-7.85442
-6.40507
-5.63971
-1.21831
0.841897
2.51189
3.35766
3.86833
4.17224
4.3676
4.49308
4.57521
4.62166
4.65994
-4.13635
-4.50746
-4.939
-5.44611
-5.91219
-5.49211
-4.46631
-2.97727
-0.542218
1.00153
2.1407
2.83724
3.29562
3.58599
3.77966
3.90638
3.98946
4.03863
4.06792
-3.39367
-3.59265
-3.78792
-3.95482
-3.99156
-3.63508
-2.78609
-1.51921
-0.0334077
1.05483
1.86224
2.413
2.79331
3.04999
3.2265
3.34516
3.42411
3.47221
3.4917
-2.71232
-2.78625
-2.82598
-2.80151
-2.64389
-2.27275
-1.61241
-0.724478
0.225891
1.00287
1.59662
2.02446
2.332
2.54802
2.70009
2.80494
2.87595
2.92007
2.93003
-2.10166
-2.09184
-2.04008
-1.92568
-1.719
-1.36218
-0.859233
-0.250101
0.374336
0.912657
1.3387
1.65961
1.89739
2.0695
2.19341
2.28083
2.34115
2.37931
2.38081
-1.56253
-1.50222
-1.40526
-1.25979
-1.05301
-0.763214
-0.39762
0.0149788
0.425571
0.786317
1.07936
1.30664
1.47889
1.60671
1.70072
1.76852
1.8162
1.84727
1.84169
-1.09177
-1.00475
-0.894875
-0.759485
-0.587092
-0.375194
-0.128817
0.135088
0.39161
0.618011
0.80462
0.951868
1.0653
1.15111
1.21544
1.26274
1.2966
1.32006
1.30965
-0.678651
-0.580993
-0.478794
-0.376103
-0.262511
-0.13387
0.00710981
0.152032
0.289744
0.410644
0.510668
0.590203
0.652071
0.699469
0.735553
0.762562
0.782333
0.798361
0.784361
-0.29471
-0.209173
-0.139254
-0.0918725
-0.0490389
-0.00463717
0.040048
0.0826399
0.120764
0.152901
0.178975
0.199717
0.216169
0.229213
0.239618
0.247676
0.252832
0.259019
0.254481
)
;

boundaryField
{
    leftWall
    {
        type            fixedFluxPressure;
        gradient        uniform 0;
        value           nonuniform List<scalar> 
50
(
1470.95
1469.95
1467.95
1465.32
1461.83
1457.93
1453.45
1448.47
1439.96
1426.64
1412.33
1397.63
1383.16
1370.54
1336.58
510.084
-1.99561
-2.00534
-2.04082
-2.08029
-2.11743
-2.15696
-2.1965
-2.23367
-2.26662
-2.29387
-2.31451
-2.32789
-2.33354
-2.33108
-2.32024
-2.30084
-2.27278
-2.23603
-2.19061
-2.13665
-2.07432
-2.00391
-1.92578
-1.8403
-1.74789
-1.64922
-1.54517
-1.43593
-1.32067
-1.20024
-1.08014
-0.964951
-0.843907
-0.690258
)
;
    }
    rightWall
    {
        type            fixedFluxPressure;
        gradient        uniform 0;
        value           nonuniform List<scalar> 
50
(
23.4744
23.4733
23.4705
23.4661
23.4602
23.4525
23.443
23.4315
23.4102
23.37
23.3153
23.2419
23.1443
23.0155
22.8464
22.626
22.3415
21.9797
21.5285
20.9804
20.3355
19.6025
18.7982
17.9444
17.0633
16.1751
15.2949
14.4332
13.5965
12.7879
12.0085
11.257
10.5308
9.82634
9.14001
8.47023
7.81513
7.16679
6.52442
5.89023
5.26782
4.65994
4.06792
3.4917
2.93003
2.38081
1.84169
1.30965
0.784361
0.254481
)
;
    }
    lowerWall
    {
        type            fixedFluxPressure;
        gradient        uniform 0;
        value           nonuniform List<scalar> 
62
(
1470.95
1475.93
1479.18
1477.37
1469.52
1457.95
1445.11
1432.2
1419.79
1408.33
1398.5
1391.2
1387.7
1389.67
1399.44
1419.62
1452.02
1496.58
1547.37
1588.62
1593.71
1567.8
1612.35
1612.35
1611.33
1633.88
1662.77
1667.8
1635.33
1549.52
1396.57
464.176
518.268
469.536
56.2625
23.8562
23.8605
23.8683
23.8809
23.907
23.9521
24.0741
24.3273
23.8562
23.7952
23.7303
23.6961
23.6716
23.6511
23.6369
23.6267
23.6167
23.605
23.5908
23.574
23.5554
23.5363
23.5179
23.5016
23.4884
23.4792
23.4744
)
;
    }
    atmosphere
    {
        type            totalPressure;
        rho             rho;
        psi             none;
        gamma           1;
        p0              uniform 0;
        value           nonuniform List<scalar> 
46
(
-0.584118
-0.587623
-0.587783
-0.588017
-0.587989
-0.587689
-0.587036
-0.585927
-0.58423
-0.581784
-0.578383
-0.573759
-0.567565
-0.559367
-0.548631
-0.534714
-0.51686
-0.494269
-0.466208
-0.43213
-0.391693
-0.34473
-0.291279
-0.247696
-0.218771
-0.189104
-0.159156
-0.109561
-0.0467685
-0.00593741
0
0
0
0
0
0
0
0
0
0
0
0
0
0
0
0
)
;
    }
    defaultFaces
    {
        type            empty;
    }
}


// ************************************************************************* //
