/*--------------------------------*- C++ -*----------------------------------*\
| =========                 |                                                 |
| \\      /  F ield         | OpenFOAM: The Open Source CFD Toolbox           |
|  \\    /   O peration     | Version:  2206                                  |
|   \\  /    A nd           | Website:  www.openfoam.com                      |
|    \\/     M anipulation  |                                                 |
\*---------------------------------------------------------------------------*/
FoamFile
{
    version     2.0;
    format      ascii;
    arch        "LSB;label=32;scalar=64";
    class       volScalarField;
    location    "0.075";
    object      p;
}
// * * * * * * * * * * * * * * * * * * * * * * * * * * * * * * * * * * * * * //

dimensions      [1 -1 -2 0 0 0 0];

internalField   nonuniform List<scalar> 
2268
(
1618.7
1611.74
1594.52
1567.99
1532.2
1486.46
1429.99
1361.7
1280.64
1184.96
1071.39
941.34
790.066
598.248
372.601
177.848
71.6639
25.8616
10.6061
6.25781
5.01651
5.12534
5.45594
1560.67
1553.7
1536.47
1509.96
1474.17
1428.42
1371.93
1303.58
1222.43
1126.54
1012.46
881.909
729.572
532.825
299.578
110.484
31.6836
10.808
7.13484
5.07565
4.46144
4.80599
5.23796
1503.48
1496.52
1479.27
1452.78
1417
1371.24
1314.71
1246.26
1164.94
1068.61
953.615
822.109
667.355
461.141
218.648
56.4625
12.7878
4.72924
4.11973
3.25568
3.33455
4.00568
4.5383
1447.16
1440.18
1422.92
1396.46
1360.7
1314.93
1258.35
1189.78
1108.23
1011.3
895.105
762.319
603.37
383.248
140.637
28.4092
7.52796
3.0887
1.91417
1.62714
2.20915
3.10941
3.67984
1391.72
1384.72
1367.45
1341.03
1305.31
1259.54
1202.94
1134.23
1052.45
954.832
837.387
703.326
538.502
302.245
76.8074
14.752
4.86717
2.42685
1.45282
1.20091
1.58424
2.38822
2.92716
1337.2
1330.16
1312.9
1286.54
1250.88
1205.15
1148.54
1079.75
997.768
899.509
781.045
646.048
474.314
225.457
39.1301
8.547
3.3411
2.00784
1.34964
1.17044
1.41896
1.95885
2.32758
1283.56
1276.48
1259.24
1232.96
1197.38
1151.72
1095.16
1026.32
944.209
845.345
726.281
591.12
412.294
157.348
21.4285
5.18073
2.42175
1.69617
1.30481
1.18418
1.34388
1.68719
1.83688
1230.8
1223.62
1206.42
1180.25
1144.76
1099.21
1042.72
973.893
891.703
792.321
673.005
538.172
352.791
101.206
11.6371
3.21873
1.89096
1.48451
1.25174
1.17031
1.26363
1.46072
1.39631
0.92588
0.927772
0.922778
0.911617
0.897005
0.880614
0.863532
0.846538
0.830148
0.814757
0.800571
0.787777
0.776482
0.766755
0.758633
0.752148
0.747294
0.744074
0.74247
0.866279
0.869343
0.86464
0.853293
0.838452
0.821862
0.804628
0.787545
0.771092
0.755658
0.741446
0.728634
0.71733
0.707599
0.699473
0.692988
0.688134
0.684915
0.683312
0.805793
0.811431
0.807286
0.795538
0.780228
0.763267
0.745727
0.728426
0.711824
0.696293
0.682024
0.669176
0.657851
0.64811
0.639981
0.633494
0.628641
0.625424
0.623822
0.744133
0.75418
0.750818
0.738367
0.722312
0.704768
0.686771
0.669145
0.652327
0.636654
0.622299
0.6094
0.598046
0.588292
0.58016
0.573672
0.56882
0.565605
0.564002
0.681207
0.697947
0.69535
0.681771
0.664668
0.646331
0.627729
0.609677
0.592582
0.576728
0.562264
0.549303
0.537914
0.528146
0.520009
0.51352
0.50867
0.505457
0.503856
0.615335
0.643087
0.641072
0.625709
0.607232
0.587899
0.568555
0.549992
0.532566
0.5165
0.501911
0.488878
0.477452
0.467667
0.459527
0.453039
0.448192
0.444982
0.443383
0.540182
0.588335
0.588297
0.570152
0.549905
0.529398
0.509193
0.490047
0.472251
0.455952
0.441226
0.428118
0.416655
0.406854
0.398712
0.392228
0.387386
0.384179
0.382584
0.455883
0.531328
0.536371
0.515083
0.4926
0.470723
0.449573
0.429797
0.411606
0.395065
0.380198
0.367015
0.355517
0.345704
0.337564
0.331086
0.326252
0.323051
0.321459
1149.89
1142.5
1125.46
1099.49
1064.25
1018.96
962.739
894.184
812.1
712.611
593.779
458.571
265.137
44.8819
5.1818
1.84454
1.43246
1.27329
1.14573
1.09005
1.10535
1.12487
0.750801
1044.47
1036.98
1020.22
994.755
960.147
915.658
860.396
793.005
712.304
614.365
498.629
365.368
171.887
12.4092
2.05948
1.16028
1.08031
1.01614
0.942791
0.903502
0.881903
0.850539
0.739443
943.862
936.315
919.984
895.239
861.579
818.32
764.619
699.216
621.054
526.347
416.101
287.788
105.278
4.96242
1.33927
0.879436
0.837998
0.782079
0.735317
0.707774
0.689986
0.672298
0.646301
848.285
840.771
825.035
801.244
768.875
727.322
675.826
613.278
538.809
448.948
346.156
225.116
60.7787
2.44511
0.884112
0.635518
0.602773
0.555428
0.525219
0.503544
0.486338
0.464028
0.425033
757.874
750.491
735.514
712.904
682.158
642.76
594.062
535.133
465.321
381.564
287.477
175.175
32.2387
0.919928
0.329213
0.358413
0.343276
0.323259
0.307138
0.289706
0.271298
0.246339
0.209061
672.675
665.521
651.45
630.228
601.4
564.548
519.145
464.452
400.026
323.254
238.56
135.968
15.3847
0.14393
-0.116077
0.0817428
0.0852082
0.0899924
0.0854338
0.0738487
0.058414
0.0373442
0.00852712
592.627
585.793
572.75
553.089
526.422
492.429
450.704
400.692
342.141
272.878
197.808
105.473
6.46569
-0.0717541
-0.315175
-0.161749
-0.146843
-0.133926
-0.13279
-0.139356
-0.15073
-0.167369
-0.190138
517.567
511.133
499.213
481.248
456.931
426.028
388.248
343.204
290.8
229.269
163.686
81.6543
2.12626
-0.282597
-0.410994
-0.366934
-0.357634
-0.347294
-0.345229
-0.348934
-0.3571
-0.36992
-0.387628
447.265
441.302
430.576
414.406
392.572
364.914
331.242
291.313
245.147
191.332
134.839
62.8423
0.25408
-0.593541
-0.567579
-0.568668
-0.561467
-0.55471
-0.553174
-0.555192
-0.560724
-0.569991
-0.583043
381.425
375.989
366.499
352.188
332.913
308.579
279.081
244.288
204.301
158.01
110.06
47.7319
-0.435246
-0.787467
-0.748276
-0.77276
-0.764221
-0.759806
-0.758491
-0.758964
-0.761945
-0.767787
-0.776586
319.546
314.664
306.42
293.986
277.285
256.277
230.921
201.171
167.178
128.098
88.1067
35.1619
-0.764977
-0.965168
-0.923898
-0.981494
-0.968622
-0.964622
-0.962572
-0.961166
-0.961409
-0.963795
-0.968541
261.128
256.845
249.857
239.3
225.154
207.433
186.144
161.293
133.056
100.806
68.169
24.281
-1.15164
-1.27478
-1.13084
-1.19521
-1.17614
-1.16997
-1.16607
-1.16237
-1.15962
-1.1584
-1.15911
206.635
202.954
197.266
188.577
176.953
162.474
145.174
125.096
102.428
76.6648
50.6948
15.1133
-1.46859
-1.57536
-1.35637
-1.39941
-1.38149
-1.37455
-1.36896
-1.36279
-1.35682
-1.3518
-1.34843
155.731
152.346
147.896
140.999
131.759
120.339
106.793
91.2172
73.8522
54.3227
34.7418
7.47295
-1.66924
-1.6623
-1.5454
-1.57621
-1.57986
-1.57813
-1.57201
-1.56304
-1.55332
-1.54417
-1.53655
101.985
98.7869
95.3758
90.0703
82.961
74.2445
64.0136
52.4324
39.8252
26.14
13.4731
-2.18913
-1.97427
-1.58286
-1.67622
-1.75816
-1.78356
-1.78586
-1.77786
-1.76454
-1.74979
-1.73572
-1.72349
47.6818
45.571
43.341
39.6964
34.8974
29.0922
22.4242
15.0581
7.34943
-0.599329
-6.94692
-12.8678
-2.49233
-1.48787
-1.80981
-1.98061
-2.01059
-2.00554
-1.98974
-1.96852
-1.94669
-1.9265
-1.90915
21.0662
20.1456
19.2648
17.712
15.7225
13.4023
10.8931
8.26592
5.91572
3.80563
3.44598
5.87104
-4.30454
-1.79731
-2.17223
-2.32017
-2.28577
-2.24501
-2.21004
-2.17516
-2.14369
-2.11595
-2.0931
18.2118
17.9616
17.6151
17.0865
16.3925
15.3364
14.1034
12.7755
11.4532
9.04043
6.9346
-0.208581
0.495315
-3.38821
-2.94387
-2.80864
-2.61711
-2.50638
-2.43723
-2.38263
-2.33901
-2.30351
-2.27469
-3.82854
-3.83648
-3.86224
-3.89616
-3.91651
-3.9186
-3.92312
-3.93311
-3.9504
-3.99486
-4.1039
-4.24385
-4.60426
-5.19231
-4.03193
-3.36166
-2.96218
-2.77375
-2.66246
-2.58629
-2.53027
-2.48701
-2.45277
-3.98889
-3.98962
-3.9934
-3.99624
-3.99204
-3.99074
-3.99128
-3.99421
-4.00315
-4.03054
-4.08907
-4.22676
-4.65116
-5.25393
-4.81951
-3.72717
-3.25325
-3.01124
-2.87003
-2.77868
-2.71354
-2.66448
-2.62615
-4.03201
-4.03164
-4.03146
-4.02976
-4.02541
-4.02083
-4.01568
-4.01054
-4.00846
-4.00752
-4.01321
-4.1086
-4.3845
-4.52027
-4.2756
-3.72403
-3.39577
-3.18038
-3.04514
-2.95283
-2.88548
-2.83418
-2.79382
-4.07879
-4.07776
-4.07561
-4.07146
-4.06506
-4.05698
-4.04714
-4.03622
-4.02435
-4.0073
-3.9918
-4.01655
-4.07561
-4.03523
-3.84973
-3.61206
-3.43639
-3.29516
-3.18967
-3.10861
-3.04556
-2.99561
-2.95535
-4.13158
-4.13021
-4.12669
-4.12085
-4.11244
-4.10142
-4.08782
-4.07175
-4.05181
-4.02542
-3.99896
-3.98496
-3.96283
-3.88258
-3.7427
-3.60481
-3.49596
-3.40033
-3.31985
-3.25227
-3.1962
-3.14973
-3.11113
-4.18634
-4.18428
-4.17965
-4.17247
-4.16245
-4.14935
-4.13307
-4.11328
-4.08871
-4.05844
-4.02512
-3.99041
-3.94376
-3.87187
-3.77789
-3.67693
-3.59066
-3.51428
-3.44793
-3.39032
-3.34069
-3.29821
-3.26198
-4.24539
-4.24264
-4.23733
-4.22929
-4.21825
-4.20397
-4.18617
-4.16435
-4.13774
-4.10613
-4.07027
-4.02883
-3.97669
-3.91182
-3.83941
-3.76568
-3.69632
-3.63271
-3.57588
-3.52552
-3.48121
-3.44249
-3.40883
-4.3078
-4.30482
-4.29921
-4.29072
-4.27915
-4.26431
-4.24588
-4.22338
-4.19636
-4.16473
-4.12847
-4.08669
-4.03772
-3.98167
-3.92182
-3.86216
-3.80506
-3.75161
-3.70266
-3.65838
-3.61872
-3.58349
-3.55239
-4.37392
-4.37112
-4.3655
-4.35691
-4.34525
-4.33035
-4.31197
-4.28974
-4.2634
-4.23288
-4.19809
-4.15864
-4.11431
-4.0659
-4.01544
-3.96522
-3.91677
-3.87096
-3.82838
-3.7893
-3.75378
-3.72181
-3.69322
-4.44423
-4.44166
-4.43616
-4.42771
-4.41625
-4.40167
-4.3838
-4.36242
-4.33736
-4.30861
-4.2762
-4.24011
-4.20062
-4.15855
-4.11529
-4.07226
-4.03052
-3.99073
-3.95337
-3.91872
-3.88689
-3.85793
-3.83177
-4.51863
-4.51616
-4.51083
-4.50266
-4.49162
-4.47764
-4.46061
-4.44042
-4.41701
-4.39043
-4.36078
-4.32826
-4.29328
-4.25657
-4.21907
-4.18177
-4.14547
-4.11066
-4.07773
-4.04695
-4.01842
-3.99226
-3.96841
-4.59659
-4.59413
-4.589
-4.58122
-4.57078
-4.55761
-4.54165
-4.52289
-4.50132
-4.47706
-4.45026
-4.42121
-4.39031
-4.35817
-4.32549
-4.29297
-4.2612
-4.23063
-4.20155
-4.17418
-4.14866
-4.12509
-4.10345
-4.67751
-4.67509
-4.67023
-4.66296
-4.65324
-4.64103
-4.62631
-4.6091
-4.58948
-4.56756
-4.54356
-4.51775
-4.49051
-4.46234
-4.43377
-4.40533
-4.37748
-4.35059
-4.3249
-4.30061
-4.27783
-4.25667
-4.23714
-4.76107
-4.75878
-4.75429
-4.74761
-4.73869
-4.72753
-4.71412
-4.69853
-4.68085
-4.66123
-4.63987
-4.61705
-4.5931
-4.56842
-4.54343
-4.51855
-4.49413
-4.47049
-4.44786
-4.42636
-4.40611
-4.38722
-4.3697
-4.84714
-4.84508
-4.84102
-4.83497
-4.8269
-4.8168
-4.80473
-4.79074
-4.77495
-4.75751
-4.73863
-4.71854
-4.69755
-4.67597
-4.65415
-4.63242
-4.61108
-4.59037
-4.57049
-4.55155
-4.53366
-4.51691
-4.50131
-4.93567
-4.93388
-4.93027
-4.92485
-4.91761
-4.90857
-4.89779
-4.88535
-4.87136
-4.85597
-4.83938
-4.8218
-4.80347
-4.78468
-4.76571
-4.74681
-4.72824
-4.7102
-4.69286
-4.67629
-4.6606
-4.64588
-4.63212
-5.02651
-5.02498
-5.0218
-5.01697
-5.01054
-5.00251
-4.99297
-4.98199
-4.9697
-4.95623
-4.94175
-4.92646
-4.91058
-4.89432
-4.87793
-4.86162
-4.84558
-4.82998
-4.81495
-4.80064
-4.78705
-4.77426
-4.76228
-5.11936
-5.11805
-5.11526
-5.111
-5.10533
-5.09827
-5.08991
-5.08032
-5.06962
-5.05794
-5.04543
-5.03226
-5.01862
-5.0047
-4.99068
-4.97675
-4.96306
-4.94976
-4.93695
-4.92472
-4.91311
-4.90217
-4.89191
-5.21384
-5.21271
-5.21028
-5.20656
-5.20162
-5.19549
-5.18825
-5.17999
-5.1708
-5.16081
-5.15015
-5.13896
-5.12742
-5.11567
-5.10387
-5.09216
-5.08068
-5.06954
-5.05882
-5.04859
-5.03888
-5.02972
-5.02112
-5.30954
-5.30856
-5.30646
-5.30327
-5.29904
-5.29383
-5.28768
-5.2807
-5.27296
-5.26458
-5.25568
-5.24638
-5.23681
-5.22711
-5.21741
-5.20781
-5.19843
-5.18934
-5.18061
-5.17231
-5.16444
-5.15701
-5.15004
-5.40616
-5.40531
-5.40355
-5.40088
-5.39736
-5.39304
-5.38797
-5.38223
-5.3759
-5.36908
-5.36187
-5.35437
-5.3467
-5.33896
-5.33126
-5.32367
-5.3163
-5.30919
-5.30239
-5.29595
-5.28986
-5.28413
-5.27875
-5.50378
-5.50308
-5.50164
-5.49948
-5.49665
-5.49319
-5.48916
-5.48461
-5.47963
-5.47429
-5.46869
-5.46291
-5.45705
-5.45118
-5.4454
-5.43975
-5.43431
-5.42912
-5.4242
-5.41958
-5.41524
-5.41117
-5.40735
-5.60199
-5.60146
-5.60037
-5.59873
-5.59659
-5.59399
-5.59097
-5.58759
-5.58392
-5.58004
-5.576
-5.57189
-5.56778
-5.56372
-5.55979
-5.55603
-5.55248
-5.54916
-5.54609
-5.54326
-5.54064
-5.53821
-5.53594
-5.69912
-5.69883
-5.69813
-5.69708
-5.69571
-5.69405
-5.69215
-5.69005
-5.6878
-5.68546
-5.68308
-5.68073
-5.67844
-5.67626
-5.67423
-5.67239
-5.67074
-5.66931
-5.66808
-5.66705
-5.66617
-5.66537
-5.66462
-0.0127086
0.0580868
0.23
0.320485
0.558789
0.503709
0.478144
0.449548
0.566495
0.496946
0.435488
0.38822
0.366358
0.325645
0.289137
0.256017
0.172093
0.147176
0.121497
0.0953059
-0.0183265
-0.0373264
-0.0577151
-0.0786697
-0.211282
-0.226072
-0.241847
-0.258181
-0.403852
-0.415122
-0.427193
-0.43984
-0.595112
-0.603539
-0.612627
-0.62224
-0.785059
-0.791052
-0.797597
-0.804609
-0.973709
-0.977506
-0.981794
-0.986511
-1.16113
-1.16287
-1.16508
-1.16771
-1.34736
-1.34714
-1.34738
-1.34805
-1.53242
-1.53026
-1.5286
-1.52741
-1.71624
-1.71215
-1.70861
-1.7056
-1.89864
-1.89258
-1.88718
-1.8824
-2.07923
-2.07118
-2.06393
-2.05743
-2.25744
-2.24745
-2.23843
-2.23031
-2.43249
-2.42075
-2.41015
-2.40059
-2.6035
-2.59038
-2.57852
-2.56778
-2.76976
-2.75575
-2.74305
-2.73148
-2.93091
-2.91658
-2.90348
-2.89148
-3.08715
-3.07294
-3.05986
-3.04777
-3.23899
-3.22524
-3.21247
-3.20059
-3.38709
-3.37399
-3.36173
-3.35023
-3.53203
-3.51968
-3.50805
-3.49707
-3.67429
-3.66275
-3.65181
-3.64145
-3.81428
-3.80357
-3.79337
-3.78367
-3.95235
-3.94246
-3.93303
-3.92402
-4.08878
-4.07973
-4.07105
-4.06275
-4.22383
-4.21559
-4.20767
-4.20008
-4.3577
-4.35026
-4.3431
-4.33621
-4.49058
-4.48392
-4.4775
-4.47132
-4.62263
-4.61673
-4.61104
-4.60555
-4.754
-4.74884
-4.74386
-4.73906
-4.8848
-4.88038
-4.8761
-4.87198
-5.01517
-5.01146
-5.00788
-5.00442
-5.14521
-5.1422
-5.1393
-5.13649
-5.27502
-5.2727
-5.27047
-5.26831
-5.40471
-5.40307
-5.40149
-5.39996
-5.53437
-5.53339
-5.53245
-5.53155
-5.6641
-5.66378
-5.66348
-5.66318
0.386356
0.448867
0.454442
0.429357
0.402886
0.378571
0.355861
0.335062
0.316237
0.299313
0.284229
0.270934
0.259389
0.249566
0.241435
0.234973
0.230156
0.226966
0.225382
0.406427
0.37632
0.346671
0.311669
0.279174
0.251157
0.226349
0.204275
0.184678
0.167309
0.15199
0.138593
0.127025
0.117223
0.109135
0.10272
0.097945
0.0947858
0.0932174
0.326012
0.269581
0.225716
0.185669
0.150255
0.120039
0.0938771
0.070995
0.0509297
0.033323
0.0179145
0.0045209
-0.00698886
-0.0167084
-0.0247073
-0.0310388
-0.0357448
-0.0388556
-0.0403989
0.203013
0.141841
0.0931092
0.0514483
0.0153842
-0.0154642
-0.0420364
-0.0651148
-0.0852329
-0.102792
-0.118088
-0.131332
-0.142677
-0.152233
-0.160082
-0.166285
-0.170889
-0.173931
-0.175439
0.051262
-0.00397224
-0.0504514
-0.0905384
-0.125391
-0.155495
-0.181543
-0.204182
-0.223908
-0.241102
-0.256056
-0.268984
-0.28004
-0.289339
-0.296967
-0.302989
-0.307456
-0.310405
-0.311867
-0.114112
-0.160892
-0.202392
-0.239087
-0.271447
-0.299777
-0.324525
-0.346156
-0.365071
-0.381592
-0.395975
-0.408412
-0.419048
-0.427991
-0.435323
-0.44111
-0.4454
-0.448232
-0.449636
-0.286183
-0.324749
-0.360438
-0.392836
-0.42193
-0.4478
-0.470674
-0.490846
-0.508596
-0.524169
-0.537769
-0.549552
-0.559641
-0.568129
-0.575092
-0.580588
-0.584665
-0.587355
-0.588689
-0.461753
-0.49292
-0.522747
-0.550524
-0.575966
-0.59897
-0.619591
-0.637973
-0.654283
-0.668685
-0.681319
-0.692302
-0.701728
-0.709673
-0.716197
-0.721352
-0.725177
-0.727703
-0.728954
-0.639047
-0.663651
-0.687913
-0.711084
-0.732751
-0.752692
-0.770839
-0.787214
-0.801888
-0.814945
-0.826469
-0.836532
-0.845198
-0.852521
-0.858546
-0.863314
-0.866855
-0.869194
-0.870353
-0.817023
-0.835806
-0.854916
-0.873659
-0.891589
-0.908417
-0.923986
-0.938231
-0.951141
-0.962735
-0.973041
-0.982091
-0.989919
-0.996556
-1.00203
-1.00637
-1.0096
-1.01174
-1.0128
-0.995059
-1.00863
-1.02301
-1.03757
-1.0519
-1.06565
-1.07863
-1.09069
-1.10177
-1.11182
-1.12084
-1.12881
-1.13575
-1.14165
-1.14654
-1.15042
-1.15332
-1.15524
-1.15618
-1.17276
-1.18162
-1.19163
-1.2023
-1.21319
-1.22396
-1.23439
-1.24427
-1.2535
-1.26198
-1.26967
-1.27652
-1.28253
-1.28767
-1.29194
-1.29535
-1.2979
-1.29958
-1.30042
-1.34987
-1.35438
-1.36037
-1.36739
-1.37504
-1.38298
-1.39093
-1.39868
-1.40607
-1.41298
-1.41933
-1.42505
-1.43011
-1.43447
-1.43811
-1.44103
-1.44322
-1.44467
-1.44539
-1.52616
-1.52662
-1.52887
-1.53251
-1.53712
-1.54236
-1.54795
-1.55363
-1.55923
-1.56459
-1.56962
-1.57422
-1.57833
-1.58191
-1.58492
-1.58735
-1.58918
-1.5904
-1.591
-1.70142
-1.69806
-1.69684
-1.69732
-1.6991
-1.70182
-1.70516
-1.70887
-1.71275
-1.71662
-1.72036
-1.72386
-1.72704
-1.72986
-1.73225
-1.73419
-1.73566
-1.73665
-1.73713
-1.87537
-1.86844
-1.86399
-1.86155
-1.8607
-1.86107
-1.86232
-1.86418
-1.86642
-1.86887
-1.87138
-1.87382
-1.87611
-1.87818
-1.87997
-1.88144
-1.88256
-1.88332
-1.88369
-2.0477
-2.03745
-2.03003
-2.02493
-2.02167
-2.01987
-2.01919
-2.01933
-2.02005
-2.02116
-2.0225
-2.02395
-2.02539
-2.02675
-2.02796
-2.02898
-2.02977
-2.03031
-2.03057
-2.21808
-2.2048
-2.1947
-2.18719
-2.18176
-2.17802
-2.17557
-2.17413
-2.17346
-2.17334
-2.1736
-2.17411
-2.17476
-2.17545
-2.17612
-2.17671
-2.17719
-2.17752
-2.17768
-2.38614
-2.37021
-2.35775
-2.34812
-2.34077
-2.3353
-2.33128
-2.32843
-2.3265
-2.32525
-2.32453
-2.32418
-2.3241
-2.32418
-2.32435
-2.32455
-2.32473
-2.32487
-2.32494
-2.55152
-2.5334
-2.51897
-2.50753
-2.49855
-2.49156
-2.48617
-2.48207
-2.47903
-2.47678
-2.47518
-2.47406
-2.47332
-2.47284
-2.47255
-2.47239
-2.47231
-2.47227
-2.47225
-2.71392
-2.69415
-2.67816
-2.66528
-2.65494
-2.64669
-2.64013
-2.63497
-2.63094
-2.62782
-2.62544
-2.62366
-2.62232
-2.62135
-2.62065
-2.62016
-2.61984
-2.61964
-2.61954
-2.87316
-2.8523
-2.83521
-2.82124
-2.80984
-2.80057
-2.79306
-2.78701
-2.78217
-2.77831
-2.77526
-2.77288
-2.77104
-2.76963
-2.76857
-2.76779
-2.76727
-2.76693
-2.76675
-3.02921
-3.00782
-2.99005
-2.97535
-2.96318
-2.95315
-2.9449
-2.93814
-2.93262
-2.92815
-2.92455
-2.92168
-2.9194
-2.91762
-2.91626
-2.91524
-2.91452
-2.91407
-2.91382
-3.18221
-3.16075
-3.1427
-3.12758
-3.11493
-3.10437
-3.09558
-3.08829
-3.08227
-3.07732
-3.07327
-3.07
-3.06736
-3.06528
-3.06366
-3.06244
-3.06156
-3.061
-3.0607
-3.33235
-3.31121
-3.29323
-3.27799
-3.26511
-3.25425
-3.24511
-3.23746
-3.23107
-3.22576
-3.22138
-3.21779
-3.21488
-3.21256
-3.21073
-3.20934
-3.20834
-3.2077
-3.20736
-3.47991
-3.45939
-3.44174
-3.42665
-3.41376
-3.4028
-3.39349
-3.38563
-3.37901
-3.37346
-3.36885
-3.36504
-3.36193
-3.35942
-3.35744
-3.35593
-3.35483
-3.35412
-3.35376
-3.62516
-3.60548
-3.58839
-3.57365
-3.56095
-3.55006
-3.54075
-3.53282
-3.5261
-3.52043
-3.51568
-3.51173
-3.50849
-3.50586
-3.50377
-3.50217
-3.501
-3.50025
-3.49986
-3.76836
-3.74968
-3.73333
-3.71911
-3.70677
-3.69611
-3.68693
-3.67907
-3.67236
-3.66666
-3.66187
-3.65786
-3.65455
-3.65185
-3.6497
-3.64804
-3.64684
-3.64606
-3.64566
-3.90975
-3.89219
-3.87672
-3.86315
-3.85131
-3.84101
-3.83209
-3.82441
-3.81781
-3.81219
-3.80743
-3.80343
-3.80011
-3.7974
-3.79523
-3.79355
-3.79233
-3.79154
-3.79114
-4.04955
-4.03321
-4.0187
-4.00591
-3.99468
-3.98485
-3.9763
-3.96889
-3.9625
-3.95703
-3.95238
-3.94845
-3.94518
-3.9425
-3.94035
-3.93869
-3.93748
-3.93668
-3.93629
-4.18798
-4.1729
-4.15944
-4.14751
-4.13698
-4.12772
-4.11962
-4.11257
-4.10647
-4.10123
-4.09674
-4.09295
-4.08978
-4.08718
-4.08509
-4.08346
-4.08227
-4.0815
-4.08111
-4.32522
-4.31144
-4.29909
-4.28808
-4.27832
-4.2697
-4.26214
-4.25552
-4.24978
-4.24482
-4.24057
-4.23696
-4.23394
-4.23144
-4.22944
-4.22788
-4.22674
-4.22599
-4.22562
-4.46143
-4.44898
-4.43776
-4.42773
-4.4188
-4.41089
-4.40392
-4.3978
-4.39247
-4.38785
-4.38388
-4.3805
-4.37766
-4.37532
-4.37343
-4.37196
-4.37088
-4.37017
-4.36983
-4.59676
-4.58565
-4.57561
-4.56659
-4.55854
-4.55138
-4.54505
-4.53948
-4.53461
-4.53038
-4.52673
-4.52362
-4.521
-4.51883
-4.51708
-4.51572
-4.51472
-4.51406
-4.51374
-4.73136
-4.72159
-4.71273
-4.70476
-4.69762
-4.69125
-4.6856
-4.68062
-4.67625
-4.67245
-4.66916
-4.66635
-4.66398
-4.66201
-4.66042
-4.65918
-4.65827
-4.65768
-4.65739
-4.86535
-4.85692
-4.84926
-4.84235
-4.83614
-4.83059
-4.82566
-4.8213
-4.81746
-4.81412
-4.81122
-4.80874
-4.80664
-4.8049
-4.80349
-4.80239
-4.80158
-4.80105
-4.8008
-4.99886
-4.99176
-4.9853
-4.97946
-4.9742
-4.96949
-4.9653
-4.96158
-4.9583
-4.95544
-4.95296
-4.95082
-4.94902
-4.94752
-4.9463
-4.94536
-4.94466
-4.9442
-4.94399
-5.13198
-5.12621
-5.12095
-5.11618
-5.11188
-5.10803
-5.10459
-5.10153
-5.09884
-5.09647
-5.09442
-5.09266
-5.09116
-5.08992
-5.08891
-5.08812
-5.08755
-5.08717
-5.08699
-5.26483
-5.26037
-5.2563
-5.25261
-5.24928
-5.24628
-5.2436
-5.24122
-5.23912
-5.23727
-5.23567
-5.23428
-5.23311
-5.23214
-5.23134
-5.23073
-5.23027
-5.22997
-5.22984
-5.3975
-5.39434
-5.39146
-5.38884
-5.38646
-5.38433
-5.38242
-5.38072
-5.37922
-5.3779
-5.37674
-5.37575
-5.37491
-5.37421
-5.37364
-5.3732
-5.37287
-5.37265
-5.37256
-5.53009
-5.52821
-5.5265
-5.52494
-5.52352
-5.52225
-5.52111
-5.52009
-5.51919
-5.5184
-5.51771
-5.51711
-5.5166
-5.51618
-5.51584
-5.51557
-5.51538
-5.51524
-5.51519
-5.6627
-5.66208
-5.66152
-5.661
-5.66054
-5.66012
-5.65974
-5.6594
-5.6591
-5.65884
-5.65861
-5.65841
-5.65824
-5.6581
-5.65799
-5.6579
-5.65783
-5.65779
-5.65777
)
;

boundaryField
{
    leftWall
    {
        type            calculated;
        value           nonuniform List<scalar> 
50
(
1618.7
1560.67
1503.48
1447.16
1391.72
1337.2
1283.56
1230.8
1149.89
1044.47
943.862
848.285
757.874
672.675
592.627
517.567
447.265
381.425
319.546
261.128
206.635
155.731
101.985
47.6818
21.0662
18.2118
-3.82854
-3.98889
-4.03201
-4.07879
-4.13158
-4.18634
-4.24539
-4.3078
-4.37392
-4.44423
-4.51863
-4.59659
-4.67751
-4.76107
-4.84714
-4.93567
-5.02651
-5.11936
-5.21384
-5.30954
-5.40616
-5.50378
-5.60199
-5.69912
)
;
    }
    rightWall
    {
        type            calculated;
        value           nonuniform List<scalar> 
50
(
0.74247
0.683312
0.623822
0.564002
0.503856
0.443383
0.382584
0.321459
0.225382
0.0932174
-0.0403989
-0.175439
-0.311867
-0.449636
-0.588689
-0.728954
-0.870353
-1.0128
-1.15618
-1.30042
-1.44539
-1.591
-1.73713
-1.88369
-2.03057
-2.17768
-2.32494
-2.47225
-2.61954
-2.76675
-2.91382
-3.0607
-3.20736
-3.35376
-3.49986
-3.64566
-3.79114
-3.93629
-4.08111
-4.22562
-4.36983
-4.51374
-4.65739
-4.8008
-4.94399
-5.08699
-5.22984
-5.37256
-5.51519
-5.65777
)
;
    }
    lowerWall
    {
        type            calculated;
        value           nonuniform List<scalar> 
62
(
1648.13
1641.17
1623.95
1597.42
1561.63
1515.89
1459.42
1391.13
1310.07
1214.39
1100.82
970.769
819.494
627.604
401.687
206.203
94.1364
32.6547
11.291
6.47166
5.09527
5.1792
5.50979
5.45594
5.23796
4.5383
3.67984
2.92716
2.32758
1.83688
1.39631
0.0500849
0.120751
0.292616
0.383084
0.92588
0.866279
0.805793
0.744133
0.681207
0.615335
0.540182
0.455883
0.95531
0.957201
0.952208
0.941046
0.926434
0.910043
0.892961
0.875967
0.859578
0.844186
0.83
0.817206
0.805912
0.796185
0.788063
0.781578
0.776723
0.773503
0.771899
)
;
    }
    atmosphere
    {
        type            calculated;
        value           nonuniform List<scalar> 
46
(
-5.74599
-5.74592
-5.74545
-5.74475
-5.74386
-5.74279
-5.74158
-5.74026
-5.73887
-5.73745
-5.73605
-5.73471
-5.73345
-5.73232
-5.73134
-5.73053
-5.72989
-5.72943
-5.72916
-5.72904
-5.72904
-5.72904
-5.72904
-5.72904
-5.72904
-5.72904
-5.72904
-5.72904
-5.72904
-5.72904
-5.72904
-5.72904
-5.72904
-5.72904
-5.72904
-5.72904
-5.72904
-5.72904
-5.72904
-5.72904
-5.72904
-5.72904
-5.72904
-5.72904
-5.72904
-5.72904
)
;
    }
    defaultFaces
    {
        type            empty;
    }
}


// ************************************************************************* //
