/*--------------------------------*- C++ -*----------------------------------*\
| =========                 |                                                 |
| \\      /  F ield         | OpenFOAM: The Open Source CFD Toolbox           |
|  \\    /   O peration     | Version:  2206                                  |
|   \\  /    A nd           | Website:  www.openfoam.com                      |
|    \\/     M anipulation  |                                                 |
\*---------------------------------------------------------------------------*/
FoamFile
{
    version     2.0;
    format      ascii;
    arch        "LSB;label=32;scalar=64";
    class       volScalarField;
    location    "0.075";
    object      p_rgh;
}
// * * * * * * * * * * * * * * * * * * * * * * * * * * * * * * * * * * * * * //

dimensions      [1 -1 -2 0 0 0 0];

internalField   nonuniform List<scalar> 
2268
(
1648.13
1641.17
1623.95
1597.42
1561.63
1515.89
1459.42
1391.13
1310.07
1214.39
1100.82
970.769
819.494
627.604
401.687
206.203
94.1364
32.6547
11.291
6.47166
5.09527
5.1792
5.50979
1648.95
1641.99
1624.76
1598.24
1562.46
1516.71
1460.21
1391.87
1310.72
1214.82
1100.75
970.197
817.85
620.481
384.324
182.761
73.9052
26.7163
9.84667
6.00353
4.81012
4.98562
5.38892
1650.63
1643.66
1626.42
1599.92
1564.15
1518.39
1461.85
1393.4
1312.09
1215.76
1100.76
969.256
814.494
607.6
349.498
119.861
24.1429
9.88543
9.72035
7.42785
4.61103
4.26578
4.75395
1653.16
1646.19
1628.93
1602.46
1566.71
1520.94
1464.36
1395.78
1314.24
1217.3
1101.11
968.324
809.376
587.939
295.67
67.2738
13.6311
6.3968
4.61141
4.29077
4.10277
3.56354
3.94078
1656.58
1649.58
1632.31
1605.9
1570.17
1524.41
1467.8
1399.1
1317.31
1219.7
1102.25
968.19
803.367
560.32
221.71
32.5779
9.20026
4.91637
3.08276
2.14538
2.37919
2.92051
3.23921
1660.92
1653.88
1636.62
1610.27
1574.6
1528.87
1472.27
1403.47
1321.49
1223.23
1104.77
969.771
798.037
523.681
148.824
16.1403
6.39492
3.82243
2.52074
1.85141
1.87805
2.33285
2.68337
1666.14
1659.06
1641.82
1615.55
1579.96
1534.3
1477.74
1408.9
1326.79
1227.93
1108.86
973.702
794.876
486.424
97.8013
10.7117
4.53318
3.00013
2.15986
1.77868
1.81684
2.10051
2.23763
1672.24
1665.06
1647.87
1621.69
1586.21
1540.65
1484.16
1415.33
1333.14
1233.76
1114.45
979.612
794.231
445.613
64.6358
7.14272
3.38842
2.38371
1.86363
1.69673
1.74645
1.92317
1.8473
0.95531
0.957201
0.952208
0.941046
0.926434
0.910043
0.892961
0.875967
0.859578
0.844186
0.83
0.817206
0.805912
0.796185
0.788063
0.781578
0.776723
0.773503
0.771899
0.954567
0.957631
0.952928
0.941581
0.92674
0.910151
0.892916
0.875833
0.85938
0.843946
0.829734
0.816922
0.805618
0.795887
0.787762
0.781276
0.776422
0.773203
0.7716
0.95294
0.958578
0.954433
0.942685
0.927375
0.910414
0.892874
0.875573
0.858971
0.84344
0.82917
0.816323
0.804997
0.795257
0.787128
0.780641
0.775788
0.772571
0.770968
0.950139
0.960186
0.956823
0.944372
0.928318
0.910774
0.892777
0.87515
0.858333
0.842659
0.828304
0.815406
0.804051
0.794298
0.786165
0.779677
0.774825
0.77161
0.770008
0.946071
0.962811
0.960214
0.946636
0.929532
0.911195
0.892593
0.874542
0.857447
0.841592
0.827129
0.814167
0.802778
0.79301
0.784873
0.778384
0.773534
0.770321
0.76872
0.939058
0.96681
0.964795
0.949432
0.930955
0.911622
0.892278
0.873715
0.856289
0.840223
0.825634
0.812601
0.801175
0.79139
0.78325
0.776762
0.771915
0.768705
0.767106
0.922765
0.970917
0.970879
0.952734
0.932487
0.91198
0.891775
0.872629
0.854833
0.838534
0.823808
0.8107
0.799237
0.789436
0.781294
0.774809
0.769967
0.766761
0.765166
0.89733
0.97277
0.977811
0.956523
0.93404
0.912163
0.891013
0.871237
0.853047
0.836505
0.821638
0.808456
0.796957
0.787145
0.779005
0.772527
0.767692
0.764491
0.7629
1683.36
1675.97
1658.92
1632.96
1597.71
1552.43
1496.21
1427.65
1345.57
1246.08
1127.25
992.038
798.604
373.054
31.4453
4.2329
2.48475
1.98378
1.74397
1.65084
1.65319
1.66754
1.28861
1703.13
1695.64
1678.88
1653.42
1618.81
1574.32
1519.06
1451.67
1370.97
1273.03
1157.29
1024.03
828.986
264.046
7.68281
2.62493
1.9592
1.74164
1.62259
1.56967
1.54418
1.51115
1.39914
1727.72
1720.17
1703.84
1679.1
1645.43
1602.18
1548.47
1483.07
1404.91
1310.2
1199.96
1071.64
835.076
188.193
4.57409
1.9873
1.71571
1.59872
1.52895
1.49433
1.47496
1.45669
1.43038
1757.34
1749.82
1734.09
1710.29
1677.93
1636.37
1584.88
1522.33
1447.86
1358
1255.21
1134.17
839.269
129.589
2.98232
1.66621
1.54915
1.47724
1.43826
1.41358
1.39571
1.37322
1.33414
1792.12
1784.74
1769.76
1747.15
1716.4
1677.01
1628.31
1569.38
1499.57
1415.81
1321.72
1209.42
832.549
83.4943
1.86841
1.43854
1.39298
1.36181
1.34269
1.32428
1.30563
1.28062
1.24332
1832.11
1824.96
1810.89
1789.67
1760.84
1723.99
1678.58
1623.89
1559.47
1482.69
1398
1295.41
813.727
49.4608
1.24964
1.25766
1.25043
1.25089
1.24526
1.23339
1.21788
1.19679
1.16797
1877.26
1870.43
1857.38
1837.72
1811.06
1777.06
1735.34
1685.33
1626.78
1557.51
1482.44
1390.11
784.874
25.5179
1.06044
1.12911
1.14
1.1512
1.15196
1.14531
1.13391
1.11727
1.0945
1927.4
1920.96
1909.04
1891.08
1866.76
1835.86
1798.08
1753.03
1700.63
1639.1
1573.51
1491.48
745.157
10.5889
1.03531
1.04772
1.05308
1.0627
1.06463
1.0609
1.05273
1.03991
1.0222
1982.29
1976.33
1965.6
1949.43
1927.6
1899.94
1866.27
1826.34
1780.17
1726.35
1669.86
1597.87
694.32
3.69819
0.98483
0.968546
0.973885
0.980374
0.98186
0.979834
0.9743
0.965033
0.95198
2041.64
2036.21
2026.72
2012.4
1993.13
1968.8
1939.3
1904.51
1864.52
1818.23
1770.28
1707.95
635.94
1.21478
0.91932
0.887868
0.896143
0.900435
0.90173
0.901255
0.898273
0.892431
0.883632
2104.96
2100.07
2091.83
2079.4
2062.69
2041.69
2016.33
1986.58
1952.59
1913.5
1873.51
1820.57
571.238
0.906256
0.864094
0.804958
0.81688
0.820798
0.822842
0.824247
0.824004
0.821618
0.816872
2171.73
2167.44
2160.45
2149.89
2135.75
2118.03
2096.73
2071.88
2043.64
2011.38
1978.75
1934.86
496.044
0.64816
0.780565
0.716119
0.734519
0.740641
0.74454
0.748234
0.750988
0.752209
0.751493
2242.39
2238.7
2233.02
2224.32
2212.69
2198.21
2180.9
2160.81
2138.12
2112.33
2086.36
2050.78
402.039
0.463023
0.679857
0.636739
0.654328
0.661252
0.666845
0.673008
0.678985
0.683997
0.687376
2316.49
2313.09
2308.64
2301.72
2292.46
2281.01
2267.42
2251.79
2234.37
2214.74
2195.13
2167.8
303.316
0.538427
0.618703
0.584961
0.581143
0.582862
0.588982
0.597957
0.607679
0.616822
0.62445
2387.05
2383.8
2380.36
2374.99
2367.79
2358.96
2348.58
2336.81
2323.97
2309.93
2297.02
2280.56
256.601
0.780917
0.610897
0.528052
0.50264
0.500334
0.50833
0.52165
0.536402
0.550466
0.562696
2454.5
2452.23
2449.88
2445.99
2440.84
2434.58
2427.34
2419.24
2410.66
2401.28
2393.41
2368.97
364.14
0.979582
0.604279
0.430966
0.400781
0.405849
0.421649
0.442863
0.464699
0.484884
0.502238
2428.49
2423.1
2415.98
2404.28
2388.26
2367.41
2341.68
2307.6
2268.81
2194.5
2119.56
1718.73
561.892
14.3288
0.423647
0.219634
0.251007
0.291578
0.326538
0.361416
0.39289
0.420627
0.443481
983.146
970.576
951.383
922.335
884.578
838.801
785.49
728.085
670.875
566.183
482.235
169.562
212.901
63.8053
0.192574
-0.117738
0.0453889
0.155396
0.224546
0.279145
0.322763
0.35826
0.387081
-1.04157
-1.04951
-1.07527
-1.10919
-1.12954
-1.13164
-1.13615
-1.14614
-1.16343
-1.20788
-1.31688
-1.45643
-1.81319
34.4122
11.9071
-0.563237
-0.171123
0.0136488
0.124512
0.200681
0.256696
0.299955
0.334197
-1.07673
-1.07745
-1.08124
-1.08407
-1.07988
-1.07857
-1.07912
-1.08205
-1.09099
-1.11837
-1.17685
-1.31399
-1.73211
-2.06652
7.39185
-0.812935
-0.341023
-0.0990458
0.0421348
0.133487
0.198619
0.247681
0.28601
-0.994653
-0.994281
-0.994102
-0.992404
-0.988052
-0.983469
-0.978319
-0.973183
-0.971105
-0.970152
-0.975748
-1.07037
-1.34168
-0.786281
-0.153531
-0.671114
-0.358403
-0.143024
-0.0077775
0.0845322
0.15188
0.203179
0.24354
-0.916242
-0.915212
-0.91306
-0.908904
-0.902509
-0.89443
-0.88459
-0.873664
-0.8618
-0.844745
-0.829246
-0.854015
-0.909396
-0.867128
-0.685273
-0.449453
-0.273832
-0.132605
-0.0271204
0.0539452
0.116994
0.166944
0.207197
-0.843837
-0.842467
-0.838942
-0.8331
-0.82469
-0.81367
-0.800071
-0.784004
-0.764064
-0.737672
-0.711216
-0.697211
-0.675087
-0.594829
-0.454932
-0.317057
-0.208209
-0.112582
-0.0321015
0.035474
0.091546
0.138015
0.17662
-0.773402
-0.771337
-0.766707
-0.759528
-0.74951
-0.736407
-0.720127
-0.700336
-0.675765
-0.6455
-0.61218
-0.57747
-0.530816
-0.458924
-0.364947
-0.263983
-0.177715
-0.101338
-0.0349846
0.0226235
0.0722491
0.114731
0.150959
-0.70725
-0.704501
-0.699194
-0.691155
-0.680117
-0.665835
-0.648035
-0.626218
-0.599605
-0.567995
-0.532131
-0.490698
-0.438559
-0.373685
-0.301273
-0.227546
-0.158189
-0.0945717
-0.0377395
0.0126141
0.0569226
0.0956424
0.129307
-0.644467
-0.641489
-0.635878
-0.627389
-0.61582
-0.600981
-0.582548
-0.560048
-0.533032
-0.501396
-0.465144
-0.423362
-0.374391
-0.318344
-0.25849
-0.198827
-0.141725
-0.0882843
-0.0393267
0.00494784
0.044613
0.0798407
0.110939
-0.585399
-0.582598
-0.576977
-0.56839
-0.556721
-0.541826
-0.523446
-0.501218
-0.474872
-0.444354
-0.409566
-0.370116
-0.325783
-0.277377
-0.226913
-0.176695
-0.128245
-0.0824344
-0.039856
-0.000774069
0.0347458
0.0667178
0.0953032
-0.530507
-0.527938
-0.522442
-0.51399
-0.50253
-0.487947
-0.47008
-0.448696
-0.423637
-0.394894
-0.362481
-0.326393
-0.286896
-0.244835
-0.201567
-0.158536
-0.116796
-0.0770063
-0.0396513
-0.00500137
0.0268298
0.0557869
0.0819484
-0.479719
-0.477249
-0.47192
-0.463744
-0.452709
-0.438725
-0.421696
-0.401509
-0.378099
-0.351512
-0.321863
-0.289342
-0.254363
-0.217651
-0.180159
-0.142861
-0.106557
-0.0717472
-0.038821
-0.00803119
0.0204908
0.046658
0.0705018
-0.432481
-0.430017
-0.424891
-0.41711
-0.406668
-0.393497
-0.377544
-0.358778
-0.337216
-0.312951
-0.286156
-0.2571
-0.226204
-0.194065
-0.161382
-0.128858
-0.0970891
-0.0665224
-0.0374423
-0.0100747
0.0154466
0.0390224
0.0606564
-0.38821
-0.385783
-0.380931
-0.373658
-0.363939
-0.351727
-0.337005
-0.319797
-0.300173
-0.27826
-0.254255
-0.228443
-0.201209
-0.173038
-0.144469
-0.116028
-0.0881744
-0.0612841
-0.0355978
-0.0113037
0.0114723
0.03263
0.0521584
-0.346572
-0.34428
-0.339792
-0.33311
-0.324197
-0.31303
-0.299622
-0.284029
-0.26635
-0.24673
-0.225373
-0.202551
-0.178602
-0.153922
-0.128934
-0.10405
-0.0796354
-0.0559964
-0.0333588
-0.0118584
0.00838479
0.0272751
0.0447948
-0.307451
-0.305387
-0.30133
-0.295277
-0.287204
-0.277111
-0.265034
-0.251045
-0.235256
-0.217819
-0.198935
-0.17885
-0.157856
-0.136279
-0.11446
-0.0927306
-0.0713868
-0.0506777
-0.0307955
-0.0118571
0.00603149
0.0227849
0.038384
-0.270787
-0.268994
-0.265386
-0.259962
-0.252723
-0.243687
-0.232906
-0.220462
-0.206471
-0.191086
-0.174492
-0.156909
-0.138587
-0.119798
-0.100822
-0.0819277
-0.0633554
-0.0453114
-0.0279715
-0.0113989
0.00428357
0.0190112
0.0327675
-0.236429
-0.234896
-0.231716
-0.226893
-0.220455
-0.212434
-0.202891
-0.191914
-0.179618
-0.166147
-0.151671
-0.136382
-0.120496
-0.104241
-0.0878474
-0.0715343
-0.0554964
-0.0399001
-0.0248724
-0.0105588
0.00302977
0.0158238
0.0278052
-0.204085
-0.202773
-0.199983
-0.195727
-0.190051
-0.182997
-0.174631
-0.165043
-0.154343
-0.142663
-0.130154
-0.116987
-0.103345
-0.0894217
-0.0754055
-0.0614747
-0.0477887
-0.0344845
-0.0216729
-0.00944392
0.0021623
0.0131043
0.0233699
-0.173374
-0.172239
-0.169807
-0.16609
-0.161146
-0.15502
-0.147782
-0.139518
-0.13033
-0.120337
-0.109675
-0.0984922
-0.0869457
-0.0751953
-0.0633959
-0.0516919
-0.0402124
-0.0290676
-0.0183461
-0.0081157
0.00159037
0.0107465
0.0193461
-0.143878
-0.142891
-0.140797
-0.137608
-0.133379
-0.128161
-0.122019
-0.115034
-0.107298
-0.0989182
-0.0900137
-0.0807127
-0.0711475
-0.0614493
-0.0517436
-0.0421465
-0.032761
-0.0236729
-0.0149495
-0.00664095
0.00122953
0.00865257
0.0156272
-0.115303
-0.114453
-0.112688
-0.110021
-0.106502
-0.102178
-0.0971107
-0.091371
-0.0850426
-0.07822
-0.0710063
-0.0635099
-0.0558397
-0.0481018
-0.0403964
-0.0328152
-0.0254379
-0.0183288
-0.0115352
-0.00508643
0.000998915
0.00672984
0.0121125
-0.0877282
-0.0870233
-0.0855832
-0.0834298
-0.0806004
-0.0771401
-0.0731041
-0.0685572
-0.0635742
-0.0582377
-0.0526362
-0.0468596
-0.0409963
-0.0351308
-0.0293415
-0.023698
-0.0182582
-0.0130663
-0.00815118
-0.00352527
0.000816464
0.00488751
0.00870513
-0.0607387
-0.0602143
-0.0591196
-0.0574863
-0.0553462
-0.0527415
-0.0497219
-0.0463452
-0.0426768
-0.0387877
-0.0347514
-0.0306413
-0.0265275
-0.0224758
-0.0185448
-0.0147841
-0.0112319
-0.0079134
-0.00484012
-0.002008
0.000606566
0.0030365
0.00531026
-0.0326748
-0.0323912
-0.0316922
-0.0306386
-0.0292647
-0.0276061
-0.0257033
-0.0236028
-0.0213557
-0.0190167
-0.016641
-0.0142827
-0.0119923
-0.00981515
-0.00778954
-0.00594489
-0.00430071
-0.00286588
-0.00163869
-0.000606664
0.000272576
0.0010718
0.00182118
0.522431
0.592121
0.763623
0.853973
1.21928
1.16339
1.13692
1.10823
1.35073
1.28114
1.21949
1.17209
1.27543
1.23472
1.19821
1.16507
1.20634
1.18143
1.15574
1.12955
1.14111
1.12211
1.10173
1.08077
1.07335
1.05856
1.04279
1.02645
1.00598
0.994707
0.982635
0.969989
0.939911
0.931485
0.922396
0.912784
0.875158
0.869166
0.862621
0.855608
0.811703
0.807906
0.803619
0.798901
0.749478
0.747734
0.745525
0.742897
0.688438
0.688663
0.688422
0.687747
0.628577
0.630734
0.632397
0.633587
0.569951
0.574044
0.577583
0.580587
0.512743
0.518804
0.52421
0.528989
0.457351
0.465402
0.47265
0.479148
0.404331
0.414328
0.423343
0.431462
0.354483
0.366223
0.376818
0.386384
0.308662
0.321784
0.333645
0.344387
0.267601
0.281604
0.294311
0.305874
0.231638
0.245977
0.259075
0.271075
0.2006
0.214805
0.227889
0.239973
0.17395
0.187697
0.200467
0.212356
0.151042
0.164142
0.176405
0.187901
0.131297
0.143647
0.155283
0.166256
0.114232
0.125777
0.136714
0.147077
0.0994385
0.110153
0.12035
0.130052
0.0865688
0.096449
0.105888
0.114898
0.0753307
0.0843831
0.0930581
0.101362
0.0654773
0.0737154
0.0816304
0.0892239
0.0567981
0.0642387
0.071402
0.0782866
0.0491108
0.0557714
0.0621939
0.0683753
0.0422545
0.0481529
0.0538468
0.0593326
0.0360859
0.0412386
0.0462165
0.0510161
0.0304746
0.0348975
0.0391721
0.0432956
0.0253017
0.0290094
0.0325933
0.0360512
0.0204574
0.0234632
0.0263685
0.0291715
0.015838
0.0181546
0.0203929
0.022552
0.0113444
0.0129836
0.0145665
0.0160928
0.00688104
0.00785464
0.00879402
0.00969911
0.00233893
0.00265901
0.00296738
0.00326406
0.919826
0.982334
0.987909
0.962824
0.936353
0.912038
0.889328
0.868529
0.849704
0.83278
0.817696
0.804401
0.792856
0.783033
0.774902
0.76844
0.763623
0.760433
0.758849
1.06509
1.03498
1.00533
0.970331
0.937835
0.909819
0.88501
0.862937
0.84334
0.825971
0.810652
0.797254
0.785687
0.775885
0.767797
0.761382
0.756607
0.753447
0.751879
1.10987
1.05344
1.00957
0.969525
0.934111
0.903895
0.877733
0.854851
0.834786
0.817179
0.801771
0.788377
0.776867
0.767148
0.759149
0.752817
0.748111
0.745001
0.743457
1.11206
1.05089
1.00216
0.960499
0.924435
0.893586
0.867014
0.843936
0.823818
0.806259
0.790963
0.777719
0.766374
0.756817
0.748969
0.742766
0.738161
0.73512
0.733612
1.08551
1.03027
0.983794
0.943707
0.908854
0.87875
0.852702
0.830063
0.810338
0.793143
0.778189
0.765261
0.754205
0.744906
0.737278
0.731256
0.726789
0.72384
0.722378
1.04533
0.998548
0.957048
0.920353
0.887993
0.859662
0.834915
0.813283
0.794369
0.777848
0.763465
0.751028
0.740392
0.731449
0.724117
0.71833
0.714039
0.711207
0.709804
0.998451
0.959885
0.924196
0.891798
0.862704
0.836835
0.81396
0.793788
0.776039
0.760465
0.746865
0.735082
0.724994
0.716505
0.709542
0.704046
0.69997
0.697279
0.695946
0.948075
0.916909
0.887082
0.859305
0.833863
0.810859
0.790238
0.771856
0.755546
0.741144
0.72851
0.717527
0.708101
0.700156
0.693631
0.688477
0.684651
0.682126
0.680874
0.895977
0.871373
0.84711
0.823939
0.802273
0.782331
0.764184
0.747809
0.733135
0.720078
0.708554
0.698491
0.689825
0.682503
0.676477
0.67171
0.668168
0.665829
0.66467
0.843195
0.824412
0.805302
0.786559
0.768628
0.751801
0.736232
0.721987
0.709076
0.697483
0.687177
0.678127
0.670299
0.663662
0.658186
0.653844
0.650615
0.64848
0.647423
0.790354
0.776778
0.762406
0.747837
0.733515
0.719761
0.706787
0.694724
0.683644
0.673588
0.664572
0.656599
0.649666
0.643762
0.638874
0.634989
0.632093
0.630177
0.629228
0.737842
0.72899
0.718974
0.708311
0.697421
0.686642
0.676222
0.666337
0.65711
0.648625
0.640938
0.634082
0.62808
0.62294
0.618666
0.615258
0.612712
0.611025
0.610189
0.685928
0.681423
0.675432
0.668408
0.660757
0.652822
0.644874
0.637125
0.629735
0.622823
0.616475
0.610751
0.605695
0.601335
0.59769
0.59477
0.592582
0.59113
0.59041
0.634831
0.634379
0.632122
0.628489
0.623876
0.618633
0.61305
0.607366
0.601768
0.596401
0.591377
0.586778
0.582667
0.579088
0.576073
0.573644
0.571817
0.5706
0.569997
0.584774
0.588128
0.589349
0.588868
0.58709
0.584374
0.581031
0.577316
0.573439
0.569567
0.56583
0.56233
0.559146
0.556335
0.553942
0.551998
0.550527
0.549545
0.549057
0.536017
0.542946
0.547396
0.549833
0.550681
0.550317
0.549068
0.547208
0.544961
0.542513
0.540009
0.537566
0.535276
0.533208
0.531419
0.529947
0.528823
0.528069
0.527694
0.488875
0.499126
0.506545
0.511653
0.514908
0.516705
0.517391
0.517253
0.516529
0.515416
0.514075
0.512632
0.511191
0.509833
0.50862
0.5076
0.506809
0.506273
0.506006
0.443693
0.456975
0.467069
0.474583
0.48001
0.483759
0.486204
0.48764
0.488315
0.488437
0.488174
0.487664
0.487018
0.486324
0.485654
0.485059
0.484583
0.484255
0.48409
0.400827
0.41676
0.429219
0.438853
0.446199
0.451668
0.455685
0.458538
0.460473
0.461717
0.46244
0.462784
0.462869
0.462789
0.462621
0.462422
0.462238
0.462102
0.462033
0.360641
0.378764
0.393198
0.404629
0.413612
0.420603
0.425993
0.430091
0.433136
0.435381
0.436986
0.438098
0.438844
0.439323
0.439612
0.439774
0.439857
0.439898
0.439917
0.323436
0.34321
0.359195
0.372075
0.382413
0.39067
0.397226
0.402389
0.406417
0.409533
0.411914
0.413701
0.415034
0.41601
0.416709
0.417196
0.417515
0.417716
0.417817
0.289394
0.310249
0.32734
0.34131
0.352708
0.361978
0.369488
0.37554
0.380387
0.384245
0.387291
0.389672
0.391516
0.392925
0.393985
0.394761
0.395278
0.395621
0.395802
0.258534
0.279927
0.297692
0.312401
0.324565
0.334599
0.342851
0.349611
0.355122
0.359592
0.363192
0.366068
0.368345
0.370125
0.37149
0.372507
0.373222
0.373681
0.373928
0.230736
0.252194
0.270238
0.285357
0.298007
0.308567
0.317358
0.32465
0.330674
0.335625
0.339668
0.342946
0.345577
0.347663
0.349284
0.350506
0.351378
0.351939
0.352238
0.205783
0.226922
0.244908
0.260142
0.273022
0.283886
0.293023
0.300679
0.30707
0.312377
0.316756
0.320344
0.323253
0.32558
0.327406
0.328794
0.329792
0.330436
0.330775
0.183415
0.203938
0.221586
0.236682
0.249567
0.260533
0.269837
0.277702
0.284322
0.289865
0.294479
0.298287
0.3014
0.303909
0.30589
0.307404
0.308498
0.309207
0.309574
0.163362
0.183044
0.20013
0.214878
0.227571
0.238462
0.247773
0.255702
0.262425
0.268095
0.272844
0.276792
0.280038
0.282668
0.284756
0.286359
0.287522
0.288277
0.288663
0.145361
0.164038
0.180387
0.194613
0.20695
0.21761
0.226786
0.234652
0.241362
0.247055
0.251852
0.25586
0.259173
0.26187
0.26402
0.265675
0.26688
0.267664
0.268061
0.129166
0.146719
0.162198
0.175762
0.187604
0.197902
0.20682
0.214507
0.221102
0.226726
0.231488
0.235486
0.238805
0.241518
0.243687
0.245361
0.246582
0.247379
0.247779
0.114554
0.130899
0.145406
0.158198
0.169432
0.179256
0.187808
0.195219
0.201607
0.207079
0.211733
0.215657
0.218926
0.221606
0.223755
0.225419
0.226633
0.227427
0.227822
0.101319
0.1164
0.129859
0.141792
0.152326
0.161584
0.169681
0.176729
0.18283
0.188078
0.192559
0.196349
0.199518
0.202124
0.204218
0.205842
0.207029
0.207806
0.20819
0.0892785
0.103057
0.115412
0.126419
0.13618
0.144795
0.152362
0.158975
0.16472
0.16968
0.17393
0.177537
0.180561
0.183054
0.185061
0.18662
0.187761
0.188509
0.188875
0.0782641
0.0907169
0.101929
0.111959
0.120888
0.1288
0.135774
0.14189
0.147222
0.151841
0.15581
0.159188
0.162027
0.164373
0.166265
0.167736
0.168814
0.169521
0.169865
0.0681239
0.0792388
0.0892808
0.0982956
0.106349
0.113508
0.119839
0.125408
0.130278
0.134509
0.138155
0.141265
0.143886
0.146054
0.147806
0.14917
0.15017
0.150826
0.151143
0.0587191
0.0684915
0.0773461
0.0853191
0.092463
0.0988315
0.104479
0.109461
0.113829
0.117633
0.120919
0.12373
0.126101
0.128068
0.129658
0.130897
0.131806
0.132403
0.132688
0.0499216
0.058353
0.0660109
0.072924
0.0791337
0.0846832
0.0896165
0.0939783
0.0978118
0.101158
0.104055
0.106538
0.108636
0.110378
0.111789
0.112888
0.113696
0.114226
0.114476
0.0416133
0.0487096
0.0551675
0.0610099
0.066269
0.0709788
0.0751746
0.078892
0.082166
0.0850297
0.0875138
0.0896458
0.0914506
0.0929504
0.0941654
0.0951134
0.0958099
0.0962675
0.0964807
0.0336838
0.0394544
0.0447141
0.0494811
0.0537799
0.0576366
0.0610786
0.0641337
0.0668293
0.0691913
0.0712434
0.0730072
0.074502
0.0757453
0.076753
0.0775398
0.0781182
0.0784986
0.0786726
0.0260295
0.0304865
0.0345542
0.0382463
0.0415808
0.0445769
0.047255
0.0496358
0.0517398
0.0535862
0.0551926
0.0565749
0.0577473
0.0587232
0.0595146
0.0601328
0.0605876
0.0608873
0.0610208
0.0185515
0.0217098
0.0245953
0.0272177
0.029589
0.0317224
0.033632
0.035332
0.0368363
0.0381581
0.0393094
0.0403009
0.0411426
0.0418434
0.0424121
0.0428566
0.043184
0.0434005
0.0434928
0.0111565
0.0130337
0.0147506
0.0163125
0.0177264
0.0189999
0.0201411
0.0211582
0.0220593
0.0228519
0.0235429
0.0241384
0.0246441
0.0250654
0.0254075
0.025675
0.0258724
0.026004
0.0260554
0.00374129
0.00435841
0.00492369
0.00543867
0.00590546
0.00632646
0.00670425
0.00704147
0.00734065
0.00760414
0.0078341
0.00803246
0.00820103
0.00834155
0.0084557
0.00854508
0.00861111
0.00865567
0.00867093
)
;

boundaryField
{
    leftWall
    {
        type            fixedFluxPressure;
        gradient        uniform 0;
        value           nonuniform List<scalar> 
50
(
1648.13
1648.95
1650.63
1653.16
1656.58
1660.92
1666.14
1672.24
1683.36
1703.13
1727.72
1757.34
1792.12
1832.11
1877.26
1927.4
1982.29
2041.64
2104.96
2171.73
2242.39
2316.49
2387.05
2454.5
2428.49
983.146
-1.04157
-1.07673
-0.994653
-0.916242
-0.843837
-0.773402
-0.70725
-0.644467
-0.585399
-0.530507
-0.479719
-0.432481
-0.38821
-0.346572
-0.307451
-0.270787
-0.236429
-0.204085
-0.173374
-0.143878
-0.115303
-0.0877282
-0.0607387
-0.0326748
)
;
    }
    rightWall
    {
        type            fixedFluxPressure;
        gradient        uniform 0;
        value           nonuniform List<scalar> 
50
(
0.771899
0.7716
0.770968
0.770008
0.76872
0.767106
0.765166
0.7629
0.758849
0.751879
0.743457
0.733612
0.722378
0.709804
0.695946
0.680874
0.66467
0.647423
0.629228
0.610189
0.59041
0.569997
0.549057
0.527694
0.506006
0.48409
0.462033
0.439917
0.417817
0.395802
0.373928
0.352238
0.330775
0.309574
0.288663
0.268061
0.247779
0.227822
0.20819
0.188875
0.169865
0.151143
0.132688
0.114476
0.0964807
0.0786726
0.0610208
0.0434928
0.0260554
0.00867093
)
;
    }
    lowerWall
    {
        type            fixedFluxPressure;
        gradient        uniform 0;
        value           nonuniform List<scalar> 
62
(
1648.13
1641.17
1623.95
1597.42
1561.63
1515.89
1459.42
1391.13
1310.07
1214.39
1100.82
970.769
819.494
627.604
401.687
206.203
94.1364
32.6547
11.291
6.47166
5.09527
5.1792
5.50979
5.50979
5.38892
4.75395
3.94078
3.23921
2.68337
2.23763
1.8473
0.522431
0.592121
0.763623
0.853973
0.95531
0.954567
0.95294
0.950139
0.946071
0.939058
0.922765
0.89733
0.95531
0.957201
0.952208
0.941046
0.926434
0.910043
0.892961
0.875967
0.859578
0.844186
0.83
0.817206
0.805912
0.796185
0.788063
0.781578
0.776723
0.773503
0.771899
)
;
    }
    atmosphere
    {
        type            totalPressure;
        rho             rho;
        psi             none;
        gamma           1;
        p0              uniform 0;
        value           nonuniform List<scalar> 
46
(
-0.0169458
-0.0168767
-0.0164053
-0.0157115
-0.0148168
-0.0137477
-0.0125354
-0.0112157
-0.00982773
-0.00841272
-0.00701235
-0.00566679
-0.00441293
-0.00328267
-0.00230145
-0.00148739
-0.00085089
-0.000394793
-0.000115243
-3.36378e-06
0
0
0
0
0
0
0
0
0
0
0
0
0
0
0
0
0
0
0
0
0
0
0
0
0
0
)
;
    }
    defaultFaces
    {
        type            empty;
    }
}


// ************************************************************************* //
