/*--------------------------------*- C++ -*----------------------------------*\
| =========                 |                                                 |
| \\      /  F ield         | OpenFOAM: The Open Source CFD Toolbox           |
|  \\    /   O peration     | Version:  2206                                  |
|   \\  /    A nd           | Website:  www.openfoam.com                      |
|    \\/     M anipulation  |                                                 |
\*---------------------------------------------------------------------------*/
FoamFile
{
    version     2.0;
    format      ascii;
    arch        "LSB;label=32;scalar=64";
    class       volScalarField;
    location    "0.5";
    object      p;
}
// * * * * * * * * * * * * * * * * * * * * * * * * * * * * * * * * * * * * * //

dimensions      [1 -1 -2 0 0 0 0];

internalField   nonuniform List<scalar> 
2268
(
896.294
896.686
897.482
898.365
899.148
899.808
900.475
901.29
902.336
903.648
905.238
907.105
909.226
911.569
914.093
916.73
919.366
921.832
923.911
925.429
926.424
927.355
928.366
837.009
837.391
838.199
839.11
839.92
840.606
841.295
842.128
843.192
844.522
846.12
847.965
850.044
852.334
854.812
857.435
860.119
862.71
864.963
866.621
867.679
868.579
870
777.254
777.641
778.471
779.433
780.297
781.036
781.772
782.648
783.755
785.127
786.769
788.665
790.792
793.116
795.597
798.178
800.785
803.324
805.699
807.821
809.692
811.426
812.795
716.996
717.389
718.248
719.29
720.239
721.063
721.877
722.828
724.01
725.458
727.173
729.137
731.321
733.701
736.229
738.851
741.501
744.101
746.598
748.995
751.346
753.591
755.391
656.167
656.572
657.46
658.611
659.681
660.632
661.565
662.633
663.932
665.497
667.322
669.387
671.666
674.129
676.736
679.44
682.186
684.908
687.548
690.078
692.538
694.894
696.875
594.674
595.124
596.054
597.392
598.626
599.729
600.816
602.044
603.507
605.232
607.205
609.404
611.804
614.377
617.088
619.893
622.737
625.56
628.298
630.883
633.27
635.394
636.979
532.361
532.878
533.949
535.492
537.036
538.341
539.622
541.066
542.75
544.679
546.834
549.191
551.728
554.422
557.244
560.149
563.074
565.945
568.665
571.096
573.016
574.073
573.803
469.012
469.419
470.428
472.178
474.412
476.237
477.919
479.689
481.669
483.861
486.237
488.779
491.472
494.297
497.225
500.206
503.172
506.017
508.588
510.698
511.855
511.925
504.751
347.235
291.282
231.489
215.281
236.016
274.473
363.887
572.955
746.408
692.98
618.362
651.564
765.669
844.601
869.207
814.427
685.419
742.529
1048.33
337.542
253.212
204.188
202.054
225.348
261.872
341.148
501.018
653.806
601.329
532.717
568.426
693.093
795.068
838.361
774.314
616.002
640.73
979.044
331.429
226.916
195.407
198.054
222.629
258.198
312.064
421.875
520.032
472.484
413.893
449.093
570.362
698.417
777.834
728.185
559.222
530.198
894.08
311.268
222.139
194.294
196.479
220.215
245.426
269.661
329.741
380.717
339.45
302.215
325.254
430.378
564.604
669.897
664.78
509.881
428.384
798.267
295.451
224.776
196.754
196.862
214.102
218.782
216.49
235.668
239.82
190.551
176.702
196.886
291.641
422.553
537.16
576.005
466.764
371.473
720.647
293.67
231.496
200.284
194.151
192.663
176.156
158.249
142.089
102.618
42.0541
26.8444
53.0092
138.148
275.848
402.095
473.644
430.261
375.769
693.578
297.386
237.285
195.904
172.931
154.592
129.061
99.6399
58.2882
18.9986
3.25267
1.17759
3.4532
21.8227
124.374
267.7
375.965
405.644
420.04
725.27
285.692
223.533
169.769
138.866
115.502
84.954
46.9565
11.4125
2.04515
0.465375
0.151374
0.4423
2.03795
23.4073
135.842
281.953
384.412
488.264
806.807
368.419
367.969
368.12
370.408
374.582
378.142
380.87
383.286
385.762
388.379
391.114
393.955
396.898
399.926
403.005
406.069
408.997
411.571
413.33
413.549
409.849
399.425
366.953
231.943
226.613
226.185
230.596
238.328
244.283
248.052
251.252
254.413
257.583
260.778
263.997
267.233
270.477
273.696
276.809
279.678
282.081
283.643
283.843
282.095
277.769
271.36
106.585
100.23
95.9936
100.123
107.358
112.208
114.594
117.558
121.175
124.75
128.274
131.819
135.384
138.955
142.522
146.037
149.397
152.485
154.909
156.313
156.322
154.016
149.125
41.2669
28.8549
14.9692
14.1145
18.3716
20.8269
22.2184
23.5616
25.1503
26.7268
28.2423
29.7538
31.3323
33.0247
34.8308
36.717
38.6679
41.2419
43.4192
45.1469
46.4725
47.0011
46.1983
-0.868575
-0.888579
-0.897451
-0.579991
-0.569679
-0.793687
-0.809548
-0.80329
-0.809077
-0.813575
-0.81541
-0.815954
-0.815664
-0.81463
-0.813015
-0.810674
-0.803342
-0.760905
-0.56015
-0.336873
-0.187178
-0.257283
-0.496899
-0.966478
-0.995231
-1.0084
-1.00224
-0.967614
-0.954299
-0.953604
-0.951722
-0.951365
-0.951528
-0.951349
-0.950844
-0.950102
-0.949245
-0.94855
-0.948494
-0.949822
-0.95285
-0.958862
-0.964679
-0.966438
-0.95928
-0.942016
-1.08676
-1.09955
-1.14398
-1.16
-1.12613
-1.10534
-1.09915
-1.09594
-1.09408
-1.09283
-1.0917
-1.09062
-1.08964
-1.08878
-1.08808
-1.08786
-1.08853
-1.09044
-1.09337
-1.09659
-1.09935
-1.10103
-1.10016
-1.24693
-1.24916
-1.25215
-1.25579
-1.25249
-1.24782
-1.24444
-1.2419
-1.23981
-1.23812
-1.23671
-1.23545
-1.23434
-1.2334
-1.23272
-1.23251
-1.23304
-1.23454
-1.23705
-1.24042
-1.24435
-1.24801
-1.2514
-1.39018
-1.39038
-1.39122
-1.39218
-1.39149
-1.38952
-1.38744
-1.38565
-1.3841
-1.38274
-1.38156
-1.38052
-1.3796
-1.37885
-1.3784
-1.37851
-1.3795
-1.38163
-1.38495
-1.38979
-1.396
-1.40258
-1.40993
-1.53098
-1.53118
-1.53166
-1.53198
-1.53186
-1.53128
-1.53044
-1.52957
-1.52875
-1.52801
-1.52736
-1.5268
-1.52636
-1.5261
-1.52618
-1.52688
-1.52852
-1.53123
-1.53524
-1.54157
-1.5496
-1.55792
-1.56663
-1.67337
-1.67352
-1.67386
-1.67404
-1.67412
-1.67406
-1.6739
-1.6737
-1.67353
-1.67341
-1.67337
-1.67343
-1.67362
-1.674
-1.67471
-1.67598
-1.67803
-1.68089
-1.68505
-1.69155
-1.69944
-1.70737
-1.71472
-1.81585
-1.81604
-1.81645
-1.81677
-1.81705
-1.81732
-1.8176
-1.81791
-1.81828
-1.81873
-1.81929
-1.81999
-1.82084
-1.82191
-1.82326
-1.82505
-1.82737
-1.83021
-1.83407
-1.83914
-1.84484
-1.85061
-1.85561
-1.95864
-1.9589
-1.95935
-1.95978
-1.96023
-1.96075
-1.96134
-1.96202
-1.96281
-1.96373
-1.9648
-1.96604
-1.96748
-1.96914
-1.97109
-1.97336
-1.97601
-1.97905
-1.98258
-1.98606
-1.98957
-1.99316
-1.99618
-2.1015
-2.1018
-2.10227
-2.10278
-2.10337
-2.10406
-2.10488
-2.10582
-2.10692
-2.10817
-2.10961
-2.11124
-2.1131
-2.11521
-2.11758
-2.12024
-2.1232
-2.12648
-2.12993
-2.13315
-2.13591
-2.13853
-2.1409
-2.24422
-2.24453
-2.245
-2.24557
-2.24626
-2.24709
-2.24807
-2.2492
-2.25051
-2.252
-2.25368
-2.25558
-2.2577
-2.26005
-2.26266
-2.26552
-2.26862
-2.27194
-2.27539
-2.27885
-2.28197
-2.28457
-2.28712
-2.38657
-2.38687
-2.38734
-2.38796
-2.38873
-2.38968
-2.39079
-2.39208
-2.39355
-2.39522
-2.39709
-2.39917
-2.40147
-2.40398
-2.40672
-2.40969
-2.41285
-2.41619
-2.41964
-2.42312
-2.4265
-2.42961
-2.43267
-2.5284
-2.52867
-2.52915
-2.52981
-2.53066
-2.5317
-2.53293
-2.53436
-2.53598
-2.53781
-2.53984
-2.54209
-2.54455
-2.54723
-2.55011
-2.5532
-2.55648
-2.55993
-2.56351
-2.56717
-2.57086
-2.5745
-2.57809
-2.66961
-2.66987
-2.67036
-2.67105
-2.67196
-2.67308
-2.67442
-2.67596
-2.67773
-2.6797
-2.6819
-2.68432
-2.68695
-2.68981
-2.69287
-2.69615
-2.69961
-2.70326
-2.70707
-2.71102
-2.71506
-2.71916
-2.72329
-2.81017
-2.81042
-2.81092
-2.81165
-2.81261
-2.8138
-2.81522
-2.81687
-2.81876
-2.82088
-2.82323
-2.82581
-2.82863
-2.83168
-2.83496
-2.83846
-2.84217
-2.84608
-2.85019
-2.85447
-2.8589
-2.86346
-2.86813
-2.95005
-2.9503
-2.95081
-2.95156
-2.95256
-2.95381
-2.95531
-2.95706
-2.95906
-2.96131
-2.9638
-2.96655
-2.96955
-2.9728
-2.9763
-2.98004
-2.98402
-2.98824
-2.99267
-2.99733
-3.00218
-3.00722
-3.01244
-3.08917
-3.08942
-3.08995
-3.09073
-3.09178
-3.09308
-3.09465
-3.09649
-3.09859
-3.10096
-3.10359
-3.1065
-3.10967
-3.11312
-3.11684
-3.12083
-3.12508
-3.12961
-3.13439
-3.13943
-3.14472
-3.15025
-3.15602
-3.22746
-3.22773
-3.22827
-3.22908
-3.23017
-3.23153
-3.23317
-3.23509
-3.23729
-3.23976
-3.24253
-3.24558
-3.24892
-3.25256
-3.25649
-3.26071
-3.26524
-3.27006
-3.27519
-3.28061
-3.28633
-3.29235
-3.29868
-3.36486
-3.36514
-3.3657
-3.36654
-3.36767
-3.36908
-3.37078
-3.37278
-3.37506
-3.37764
-3.38053
-3.38371
-3.38721
-3.39102
-3.39514
-3.39959
-3.40437
-3.40947
-3.41492
-3.42071
-3.42684
-3.43333
-3.44019
-3.50128
-3.50157
-3.50216
-3.50303
-3.50419
-3.50565
-3.50741
-3.50946
-3.51183
-3.5145
-3.51749
-3.52079
-3.52443
-3.52839
-3.53269
-3.53733
-3.54233
-3.5477
-3.55343
-3.55955
-3.56606
-3.57299
-3.58034
-3.63667
-3.63698
-3.63758
-3.63847
-3.63966
-3.64116
-3.64296
-3.64508
-3.64751
-3.65025
-3.65333
-3.65673
-3.66047
-3.66456
-3.66901
-3.67382
-3.67901
-3.68459
-3.69057
-3.69697
-3.70381
-3.71112
-3.7189
-3.77097
-3.77129
-3.7719
-3.77281
-3.77403
-3.77556
-3.77739
-3.77955
-3.78202
-3.78483
-3.78796
-3.79144
-3.79526
-3.79945
-3.804
-3.80894
-3.81427
-3.82001
-3.82619
-3.83282
-3.83992
-3.84753
-3.85568
-3.90415
-3.90448
-3.9051
-3.90602
-3.90725
-3.90879
-3.91065
-3.91282
-3.91532
-3.91816
-3.92133
-3.92485
-3.92872
-3.93296
-3.93758
-3.94259
-3.94801
-3.95387
-3.96017
-3.96695
-3.97424
-3.98207
-3.99048
-4.03618
-4.03652
-4.03714
-4.03806
-4.03929
-4.04083
-4.04269
-4.04487
-4.04737
-4.05021
-4.05338
-4.05691
-4.06079
-4.06504
-4.06968
-4.07471
-4.08017
-4.08606
-4.09242
-4.09927
-4.10666
-4.11461
-4.12317
-4.16704
-4.16738
-4.16799
-4.16891
-4.17013
-4.17165
-4.1735
-4.17565
-4.17813
-4.18095
-4.18409
-4.18759
-4.19144
-4.19566
-4.20026
-4.20526
-4.21068
-4.21654
-4.22287
-4.22971
-4.23709
-4.24506
-4.25364
-4.29674
-4.29707
-4.29767
-4.29857
-4.29977
-4.30126
-4.30307
-4.30518
-4.30762
-4.31037
-4.31346
-4.31689
-4.32066
-4.3248
-4.32931
-4.33422
-4.33954
-4.34529
-4.35152
-4.35825
-4.36553
-4.37338
-4.38186
-4.4253
-4.42561
-4.42619
-4.42706
-4.42822
-4.42967
-4.43142
-4.43347
-4.43583
-4.4385
-4.44149
-4.44481
-4.44847
-4.45248
-4.45685
-4.4616
-4.46675
-4.47234
-4.47837
-4.48491
-4.49197
-4.4996
-4.50784
-4.55272
-4.553
-4.55356
-4.55439
-4.5555
-4.55689
-4.55857
-4.56053
-4.56279
-4.56535
-4.56822
-4.57139
-4.57489
-4.57873
-4.5829
-4.58745
-4.59237
-4.59771
-4.60348
-4.60973
-4.61648
-4.62378
-4.63166
-4.67904
-4.67928
-4.67981
-4.68059
-4.68164
-4.68296
-4.68455
-4.68641
-4.68855
-4.69097
-4.69368
-4.69668
-4.69998
-4.7036
-4.70754
-4.71182
-4.71646
-4.72148
-4.72692
-4.7328
-4.73916
-4.74603
-4.75343
-4.80432
-4.80451
-4.80502
-4.80575
-4.80673
-4.80796
-4.80945
-4.81119
-4.81318
-4.81544
-4.81797
-4.82076
-4.82384
-4.8272
-4.83086
-4.83483
-4.83914
-4.8438
-4.84884
-4.85428
-4.86016
-4.86651
-4.87335
-4.92865
-4.92879
-4.92927
-4.92993
-4.93084
-4.93198
-4.93334
-4.93495
-4.93679
-4.93886
-4.94118
-4.94375
-4.94657
-4.94965
-4.953
-4.95663
-4.96056
-4.96481
-4.9694
-4.97436
-4.9797
-4.98546
-4.99165
-5.05205
-5.05212
-5.05255
-5.05317
-5.05398
-5.05502
-5.05626
-5.05772
-5.05939
-5.06128
-5.06338
-5.0657
-5.06824
-5.07102
-5.07403
-5.07729
-5.08082
-5.08462
-5.08873
-5.09315
-5.09791
-5.10303
-5.10852
-5.17444
-5.17448
-5.17484
-5.17542
-5.17614
-5.17708
-5.1782
-5.1795
-5.181
-5.18268
-5.18454
-5.1866
-5.18886
-5.19131
-5.19397
-5.19684
-5.19994
-5.20327
-5.20686
-5.21072
-5.21487
-5.21931
-5.22406
-5.29591
-5.29601
-5.2963
-5.29684
-5.29749
-5.29833
-5.29932
-5.30047
-5.30178
-5.30325
-5.30488
-5.30667
-5.30863
-5.31074
-5.31303
-5.3155
-5.31815
-5.321
-5.32406
-5.32734
-5.33084
-5.33459
-5.33857
-5.41679
-5.41708
-5.41732
-5.41784
-5.41843
-5.41917
-5.42003
-5.42104
-5.42217
-5.42343
-5.42482
-5.42635
-5.428
-5.42979
-5.43171
-5.43377
-5.43598
-5.43835
-5.44087
-5.44357
-5.44645
-5.4495
-5.45272
-5.53734
-5.53786
-5.53804
-5.53854
-5.53908
-5.53974
-5.54051
-5.54138
-5.54235
-5.54342
-5.54458
-5.54585
-5.54722
-5.54869
-5.55027
-5.55194
-5.55373
-5.55563
-5.55765
-5.55979
-5.56205
-5.56443
-5.56693
-5.65724
-5.65783
-5.65805
-5.65856
-5.65911
-5.65972
-5.66039
-5.66113
-5.66194
-5.66281
-5.66375
-5.66476
-5.66584
-5.667
-5.66822
-5.66952
-5.67089
-5.67233
-5.67384
-5.67542
-5.67707
-5.67879
-5.68056
-5.77502
-5.77658
-5.77702
-5.77759
-5.77812
-5.77865
-5.77919
-5.77975
-5.78034
-5.78097
-5.78164
-5.78235
-5.7831
-5.78389
-5.78472
-5.78559
-5.78649
-5.78742
-5.78837
-5.78934
-5.79032
-5.79132
-5.79231
252.87
359.664
357.982
297.62
243.15
236.459
225.375
184.039
126.072
106.462
91.7567
68.1945
38.3473
24.4994
13.2875
4.48844
-0.788918
-0.790223
-0.637191
-0.563423
-0.948792
-0.923153
-0.813079
-0.780397
-1.09902
-1.07279
-1.02356
-1.04104
-1.25559
-1.23976
-1.24343
-1.27876
-1.41563
-1.39718
-1.41336
-1.45075
-1.57223
-1.54893
-1.5589
-1.5906
-1.71917
-1.70391
-1.71283
-1.73486
-1.85985
-1.85505
-1.86424
-1.88031
-2.00103
-2.00379
-2.01362
-2.02644
-2.14593
-2.15236
-2.16288
-2.17389
-2.29261
-2.30137
-2.31254
-2.32305
-2.43943
-2.45044
-2.46276
-2.474
-2.58615
-2.59944
-2.61356
-2.62665
-2.73266
-2.74831
-2.76486
-2.78081
-2.87881
-2.89699
-2.91651
-2.9362
-3.02446
-3.04532
-3.06825
-3.09242
-3.16941
-3.19309
-3.21975
-3.24899
-3.31343
-3.33998
-3.3706
-3.4053
-3.45626
-3.48567
-3.5203
-3.56065
-3.59764
-3.62978
-3.6683
-3.71426
-3.7373
-3.7719
-3.81402
-3.86528
-3.87499
-3.91166
-3.9569
-4.01281
-4.01046
-4.04872
-4.09639
-4.15604
-4.14354
-4.18279
-4.23204
-4.2942
-4.27411
-4.31368
-4.36351
-4.42675
-4.40209
-4.44128
-4.49063
-4.55335
-4.52751
-4.56559
-4.61341
-4.67398
-4.65045
-4.68674
-4.73201
-4.78893
-4.77107
-4.80495
-4.84679
-4.89875
-4.8896
-4.92055
-4.95825
-5.00428
-5.00634
-5.03396
-5.06703
-5.10651
-5.1215
-5.14554
-5.17367
-5.20643
-5.23523
-5.25554
-5.27853
-5.30492
-5.3479
-5.36449
-5.38274
-5.40243
-5.46023
-5.47322
-5.48694
-5.50069
-5.57268
-5.58231
-5.59196
-5.60067
-5.68459
-5.69106
-5.69707
-5.70157
-5.79451
-5.79775
-5.80021
-5.80086
225.803
169.115
123.282
91.1513
60.0756
37.6885
12.5889
0.604009
0.0249221
-0.0624055
-0.0385272
0.0759041
0.282823
1.59231
23.58
140.052
333.236
586.442
927.287
135.283
95.1371
58.3044
36.447
11.0933
-0.365259
-0.470104
-0.241947
-0.296261
-0.258865
-0.196294
-0.11943
-0.00350684
0.232134
2.02178
25.8206
191.526
544.351
923.251
45.0105
29.5319
7.48385
-0.857845
-0.797463
-0.583477
-0.573405
-0.516738
-0.494871
-0.475693
-0.428765
-0.330541
-0.194529
-0.0712216
0.311903
2.48242
48.7773
363.024
764.387
-0.271777
-0.838564
-0.912243
-0.915665
-0.863333
-0.756587
-0.696804
-0.671039
-0.670716
-0.674344
-0.62684
-0.513939
-0.37142
-0.254265
-0.0342359
0.573129
5.01813
148.504
540.508
-0.645696
-0.885893
-1.04493
-1.06307
-0.991248
-0.886516
-0.81907
-0.799706
-0.811194
-0.82837
-0.792854
-0.680428
-0.529416
-0.408707
-0.227774
0.0207251
-1.3085
22.0052
352.104
-0.871491
-1.06483
-1.22446
-1.22372
-1.12627
-1.02237
-0.954546
-0.925372
-0.925545
-0.939484
-0.915064
-0.821189
-0.672309
-0.554568
-0.362259
0.0908247
-0.0967356
8.67283
231.361
-1.14923
-1.27852
-1.36579
-1.34627
-1.25309
-1.16181
-1.09375
-1.05127
-1.0312
-1.0254
-0.999813
-0.926903
-0.804094
-0.689327
-0.470239
0.168604
-0.211488
22.5775
156.163
-1.3491
-1.41508
-1.45478
-1.42812
-1.35922
-1.28677
-1.22486
-1.17484
-1.13625
-1.10728
-1.0736
-1.01298
-0.917045
-0.827347
-0.592617
0.210887
0.6786
27.7688
103.69
-1.49102
-1.51989
-1.53482
-1.51204
-1.46425
-1.4077
-1.35091
-1.29685
-1.24516
-1.19757
-1.15163
-1.09262
-1.01174
-0.96763
-0.817123
0.350494
3.6186
24.8811
68.6454
-1.61787
-1.6343
-1.63854
-1.61853
-1.57923
-1.5308
-1.47647
-1.42088
-1.36081
-1.30044
-1.24239
-1.18028
-1.11159
-1.15628
-1.36764
-0.459862
4.31209
23.3909
47.0933
-1.75241
-1.76044
-1.75754
-1.73754
-1.7033
-1.65882
-1.60645
-1.54843
-1.48473
-1.41752
-1.35228
-1.2927
-1.24212
-1.35274
-2.05097
-2.39282
0.44258
21.3591
34.4585
-1.89089
-1.8936
-1.88678
-1.86699
-1.83515
-1.79306
-1.74191
-1.6831
-1.6178
-1.54842
-1.4814
-1.43073
-1.41278
-1.5316
-2.15488
-3.81035
-3.47826
13.8092
25.956
-2.03302
-2.03292
-2.0243
-2.00497
-1.97484
-1.93458
-1.88462
-1.826
-1.76049
-1.69168
-1.62526
-1.58216
-1.58079
-1.70427
-1.93505
-2.71851
0.109616
5.38102
19.9675
-2.17879
-2.17765
-2.16877
-2.15058
-2.12244
-2.08425
-2.03594
-1.97824
-1.91332
-1.84498
-1.77899
-1.73739
-1.731
-1.81858
-1.92938
-2.21008
-1.53154
-1.12456
18.679
-2.32791
-2.3272
-2.31951
-2.30347
-2.27811
-2.24278
-2.19698
-2.14091
-2.07695
-2.00835
-1.93969
-1.89309
-1.8728
-1.90535
-1.93774
-1.99136
-1.73359
-2.0885
21.7027
-2.48018
-2.48124
-2.47611
-2.46346
-2.44208
-2.41087
-2.36883
-2.31544
-2.25289
-2.1832
-2.10826
-2.05042
-2.01386
-1.99074
-1.92592
-1.84585
-1.67321
-1.9013
23.9781
-2.63537
-2.63946
-2.63825
-2.63043
-2.6146
-2.58926
-2.55281
-2.50388
-2.44393
-2.37329
-2.28992
-2.21546
-2.16406
-2.09744
-1.95641
-1.77995
-1.61132
-1.59122
26.7515
-2.79318
-2.80152
-2.80565
-2.8043
-2.79595
-2.77878
-2.75047
-2.70894
-2.65392
-2.58423
-2.49311
-2.39807
-2.3332
-2.22835
-2.01966
-1.75226
-1.57319
-1.48962
28.2457
-2.95323
-2.96699
-2.9779
-2.98485
-2.98631
-2.9802
-2.9636
-2.9338
-2.88776
-2.82333
-2.73056
-2.61438
-2.54202
-2.40472
-2.10756
-1.71001
-1.50863
-1.4758
29.7055
-3.11504
-3.13533
-3.1545
-3.1717
-3.18565
-3.19417
-3.19398
-3.18169
-3.15204
-3.10015
-3.01809
-2.89448
-2.81884
-2.69194
-2.25365
-1.68548
-1.4152
-1.41094
31.7868
-3.27798
-3.30582
-3.33467
-3.36418
-3.39357
-3.42097
-3.44301
-3.4561
-3.45369
-3.42606
-3.37095
-3.26649
-3.15325
-3.02906
-2.50614
-1.77256
-1.38969
-1.39848
34.1341
-3.44128
-3.47755
-3.51738
-3.56121
-3.60918
-3.66026
-3.71168
-3.76052
-3.79929
-3.81429
-3.80668
-3.74649
-3.59036
-3.36728
-2.78305
-1.9795
-1.50625
-1.43819
36.6189
-3.604
-3.64932
-3.70123
-3.76124
-3.83091
-3.91086
-4.00028
-4.09781
-4.19745
-4.28431
-4.34907
-4.35455
-4.19019
-3.83272
-3.13439
-2.26474
-1.76169
-1.8432
39.0191
-3.76506
-3.81972
-3.88443
-3.96207
-4.05622
-4.17034
-4.30771
-4.46946
-4.65998
-4.86333
-5.03011
-5.12176
-4.9553
-4.45532
-3.70661
-2.66489
-2.0253
-2.49401
41.2943
-3.92326
-3.9871
-4.06473
-4.16076
-4.28141
-4.43445
-4.62975
-4.87328
-5.20174
-5.57886
-5.88326
-6.08964
-5.9079
-5.32378
-4.55228
-3.29022
-2.2913
-3.12521
43.4491
-4.07729
-4.1496
-4.2395
-4.35365
-4.50148
-4.69666
-4.95757
-5.30218
-5.82461
-6.39112
-6.9068
-7.36143
-7.36374
-6.84302
-5.73734
-4.27708
-2.62721
-3.94146
45.4768
-4.22584
-4.30529
-4.40587
-4.53646
-4.7101
-4.94781
-5.27868
-5.74538
-6.49143
-7.20566
-8.15211
-9.40635
-9.86149
-8.99193
-7.14584
-5.48058
-2.69417
-5.26807
45.4547
-4.36771
-4.45231
-4.56092
-4.70448
-4.89977
-5.17584
-5.57669
-6.17863
-7.14442
-8.0804
-9.73594
-11.6869
-11.854
-10.7998
-8.53108
-6.54859
-2.96249
-8.83573
40.755
-4.50196
-4.5891
-4.70207
-4.85332
-5.06271
-5.36679
-5.82739
-6.54849
-7.72676
-9.05957
-11.2977
-12.9244
-13.0278
-11.9571
-9.70509
-7.36142
-3.26933
-9.66197
36.0756
-4.62803
-4.71469
-4.82757
-4.9798
-5.19278
-5.50812
-6.00103
-6.79849
-8.21277
-10.0326
-12.2693
-13.4885
-13.7286
-12.647
-10.3542
-7.2877
-2.70681
-10.8452
30.3992
-4.74582
-4.8289
-4.93697
-5.0829
-5.28694
-5.59218
-6.07696
-6.89717
-8.49771
-10.7407
-12.2437
-13.4065
-13.7787
-12.722
-10.2483
-6.43316
-3.11061
-24.0431
0.804678
-4.85576
-4.93234
-5.03118
-5.16455
-5.34568
-5.62005
-6.05878
-6.85925
-8.39032
-10.6199
-11.7206
-12.5349
-12.8542
-12.0176
-9.8756
-6.03573
-3.27313
-13.2435
-9.43041
-4.95877
-5.02634
-5.11178
-5.22375
-5.37659
-5.59802
-5.96245
-6.62879
-7.77879
-10.1157
-11.1151
-11.4377
-11.6601
-11.1446
-9.18524
-4.96781
0.632093
-9.32966
-9.13267
-5.05619
-5.11284
-5.18249
-5.2705
-5.38647
-5.54603
-5.81555
-6.29442
-7.02202
-9.27221
-11.1049
-10.6037
-10.5409
-9.91002
-7.393
-5.19101
0.845174
-3.29318
-6.60839
-5.14944
-5.19462
-5.24749
-5.31056
-5.38766
-5.48448
-5.6433
-5.91628
-6.26961
-7.53947
-10.3207
-11.4221
-9.74248
-8.48739
-1.44589
-2.24886
-1.06931
-6.03625
-5.99779
-5.24028
-5.274
-5.31068
-5.35019
-5.39172
-5.43348
-5.49236
-5.58582
-5.60446
-5.49612
-6.4891
-7.77279
-6.57097
-4.26672
-0.581649
-2.64216
-5.49799
-5.84731
-5.93079
-5.32998
-5.35309
-5.37529
-5.39454
-5.40718
-5.40777
-5.39765
-5.37162
-5.25574
-4.99954
-5.01021
-5.27539
-5.1686
-4.0189
-4.57142
-5.38207
-5.66435
-5.84935
-5.87495
-5.41977
-5.43366
-5.44379
-5.44703
-5.43856
-5.41198
-5.36382
-5.28842
-5.17284
-5.03056
-4.98465
-4.85428
-5.01762
-5.55024
-5.54999
-5.5951
-5.7195
-5.8137
-5.82405
-5.5113
-5.51762
-5.5183
-5.5098
-5.48735
-5.44522
-5.38041
-5.29341
-5.19625
-5.11899
-5.06309
-5.10263
-5.32636
-5.58508
-5.64354
-5.6729
-5.7288
-5.77165
-5.79003
-5.60581
-5.60634
-5.60024
-5.58396
-5.55343
-5.50477
-5.43834
-5.36033
-5.28478
-5.23367
-5.22137
-5.28383
-5.43975
-5.60299
-5.66388
-5.68535
-5.71953
-5.75027
-5.76309
-5.70242
-5.69881
-5.68851
-5.66846
-5.63554
-5.58773
-5.52964
-5.47372
-5.42573
-5.3986
-5.40324
-5.46547
-5.5841
-5.6665
-5.68396
-5.69708
-5.71801
-5.73607
-5.74317
-5.79824
-5.79178
-5.77968
-5.76008
-5.73126
-5.69319
-5.6536
-5.62671
-5.60691
-5.59762
-5.60751
-5.65216
-5.74082
-5.75843
-5.73326
-5.72525
-5.7278
-5.73013
-5.73014
)
;

boundaryField
{
    leftWall
    {
        type            calculated;
        value           nonuniform List<scalar> 
50
(
896.294
837.009
777.254
716.996
656.167
594.674
532.361
469.012
368.419
231.943
106.585
41.2669
-0.868575
-0.966478
-1.08676
-1.24693
-1.39018
-1.53098
-1.67337
-1.81585
-1.95864
-2.1015
-2.24422
-2.38657
-2.5284
-2.66961
-2.81017
-2.95005
-3.08917
-3.22746
-3.36486
-3.50128
-3.63667
-3.77097
-3.90415
-4.03618
-4.16704
-4.29674
-4.4253
-4.55272
-4.67904
-4.80432
-4.92865
-5.05205
-5.17444
-5.29591
-5.41679
-5.53734
-5.65724
-5.77502
)
;
    }
    rightWall
    {
        type            calculated;
        value           nonuniform List<scalar> 
50
(
1048.33
979.044
894.08
798.267
720.647
693.578
725.27
806.807
927.287
923.251
764.387
540.508
352.104
231.361
156.163
103.69
68.6454
47.0933
34.4585
25.956
19.9675
18.679
21.7027
23.9781
26.7515
28.2457
29.7055
31.7868
34.1341
36.6189
39.0191
41.2943
43.4491
45.4768
45.4547
40.755
36.0756
30.3992
0.804678
-9.43041
-9.13267
-6.60839
-5.99779
-5.93079
-5.87495
-5.82405
-5.79003
-5.76309
-5.74317
-5.73014
)
;
    }
    lowerWall
    {
        type            calculated;
        value           nonuniform List<scalar> 
62
(
925.723
926.116
926.911
927.794
928.577
929.237
929.905
930.719
931.765
933.078
934.667
936.534
938.656
940.998
943.522
946.159
948.796
951.261
953.34
954.858
955.854
956.785
957.796
928.366
870
812.795
755.391
696.875
636.979
573.803
504.751
315.467
422.262
420.579
360.216
347.235
337.542
331.429
311.268
295.451
293.67
297.386
285.692
355.868
299.915
240.107
222.243
242.045
283.811
377.971
592.466
769.012
717.032
642.432
676.744
790.503
863.77
884.458
834.27
711.253
768.372
1074.14
)
;
    }
    atmosphere
    {
        type            calculated;
        value           nonuniform List<scalar> 
46
(
-5.83039
-5.83644
-5.83599
-5.83645
-5.83687
-5.83728
-5.83771
-5.83814
-5.83859
-5.83906
-5.83955
-5.84006
-5.8406
-5.84116
-5.84175
-5.84235
-5.84296
-5.84358
-5.8442
-5.84482
-5.84541
-5.84599
-5.84653
-5.84768
-5.84912
-5.84962
-5.8483
-5.84416
-5.83681
-5.8249
-5.80749
-5.78396
-5.75594
-5.73243
-5.72904
-5.72905
-5.72925
-5.73202
-5.75314
-5.84361
-5.81271
-5.74988
-5.73212
-5.72929
-5.72907
-5.72907
)
;
    }
    defaultFaces
    {
        type            empty;
    }
}


// ************************************************************************* //
