/*--------------------------------*- C++ -*----------------------------------*\
| =========                 |                                                 |
| \\      /  F ield         | OpenFOAM: The Open Source CFD Toolbox           |
|  \\    /   O peration     | Version:  2206                                  |
|   \\  /    A nd           | Website:  www.openfoam.com                      |
|    \\/     M anipulation  |                                                 |
\*---------------------------------------------------------------------------*/
FoamFile
{
    version     2.0;
    format      ascii;
    arch        "LSB;label=32;scalar=64";
    class       volScalarField;
    location    "0.6";
    object      alpha.water;
}
// * * * * * * * * * * * * * * * * * * * * * * * * * * * * * * * * * * * * * //

dimensions      [0 0 0 0 0 0 0];

internalField   nonuniform List<scalar> 
2268
(
1
1
1
1
1
1
1
1
1
1
1
1
1
1
1
1
1
0.999602
0.951402
0.915216
0.972625
0.998601
0.998601
1
1
1
1
1
1
1
1
1
1
1
1
1
1
1
1
1
1
0.99176
0.915284
0.934334
0.996687
0.998601
1
1
1
1
1
1
1
1
1
1
1
1
1
1
1
1
1
1
1
0.981918
0.926162
0.941879
0.996754
1
1
1
1
1
1
1
1
1
1
1
1
1
1
1
1
1
1
1
0.999999
0.926219
0.926541
0.992414
1
1
1
1
1
1
1
1
1
1
1
1
1
1
1
1
1
1
1
1
0.973211
0.986195
0.998863
1
1
1
1
1
1
1
1
1
1
1
1
1
1
1
1
1
1
1
1
1
0.999987
0.999988
1
1
1
0.999998
0.999997
0.999997
0.999999
1
1
1
1
1
1
1
1
1
1
1
1
1
1
1
0.999906
1
0.99938
0.983595
0.967803
0.96788
0.981436
0.999778
0.999987
0.999997
1
1
1
1
1
1
1
1
1
1
1
1
1
0.999906
0.293836
0.427109
0.96443
0.992841
0.499761
0.347104
0.491695
0.735968
0.737339
0.737054
0.761382
0.777441
0.800005
0.828748
0.854007
0.867293
0.872409
0.873608
0.766746
0.293836
0.682181
0.999972
0.999972
0.915674
0.351765
0.613473
0.643677
0.212362
0.17182
0.238383
0.294312
0.386472
0.492428
0.606993
0.736058
0.855694
0.893764
0.894075
0.482347
0.999686
0.999972
0.999972
0.999972
0.586769
0.541553
0.223036
0.000461633
0.000454883
0.000457181
0.000471928
0.000538313
0.000756726
0.00190806
0.0911915
0.36975
0.819933
0.894554
0.909469
0.999969
0.999971
0.999972
0.999971
0.781362
0.378141
0.000858813
0.000455627
0.000455631
0.000454761
0.000457181
0.000471928
0.000466067
0.000638494
0.00189671
0.0150854
0.526821
0.894554
0.999737
0.999704
0.999963
0.999971
0.999967
0.740779
0.174931
0.000653129
0.000567922
0.000556893
0.00123324
0.00123271
0.000843622
0.000355202
0.000233074
0.000639052
0.00299748
0.325677
0.894554
0.999787
0.999676
0.999952
0.999966
0.999925
0.676066
0.316195
0.00344603
0.000653145
0.000697913
0.00124035
0.00124505
0.00123336
0.00029464
0.000136721
0.000206811
0.000944602
0.238631
0.894554
0.999809
0.999872
0.999954
0.999955
0.99964
0.781099
0.681298
0.00305323
0.000673225
0.00123614
0.00124337
0.00120975
0.000429703
0.000205915
0.000110608
7.17576e-05
0.000225592
0.195936
0.894552
0.999787
0.999953
0.999955
0.999953
0.977109
0.884893
0.667192
0.0010698
0.000769822
0.000944382
0.00023744
4.77624e-05
4.13634e-05
8.1966e-05
9.94036e-05
4.20773e-05
3.7208e-05
0.168893
0.894542
0.713832
0.566959
0.444016
0.427787
0.454337
0.54113
0.678287
0.795242
0.878139
0.94441
0.990561
1
1
1
1
1
1
1
1
1
1
1
0.999932
8.31689e-09
8.27015e-09
1.38366e-06
0.00213747
0.0437974
0.0938652
0.119896
0.140212
0.186423
0.271738
0.395245
0.5426
0.692692
0.866165
0.99943
1
1
1
1
1
1
1
0.999983
8.21964e-09
6.64807e-08
1.64635e-08
2.01808e-12
2.00039e-12
6.13416e-12
1.08257e-10
8.56348e-10
1.02902e-10
6.72239e-10
1.34343e-08
0.00472633
0.0582383
0.159707
0.323072
0.508638
0.656776
0.834519
0.967067
0.988996
0.993873
0.998872
0.999975
7.90571e-09
3.49634e-08
6.7583e-10
2.00039e-12
1.89848e-12
1.52606e-12
2.66408e-12
1.04255e-11
6.79237e-11
1.02903e-10
6.72239e-10
4.53407e-09
7.45423e-09
1.43919e-08
1.80703e-07
0.0161488
0.046262
0.0960246
0.215725
0.339931
0.430817
0.533578
0.645416
1.22451e-10
1.52511e-09
1.85418e-11
8.43874e-12
2.45444e-11
1.52606e-12
1.52606e-12
3.40429e-12
7.80023e-11
8.12836e-09
4.9272e-08
7.48444e-09
7.00541e-09
7.4543e-09
1.43921e-08
1.80715e-07
5.7146e-07
8.37591e-07
8.91198e-07
1.10652e-06
3.59846e-06
8.09425e-06
0.0219082
7.79768e-15
4.80347e-14
6.13188e-13
1.07328e-12
3.34536e-12
3.00778e-12
2.46181e-12
2.49519e-12
1.97049e-08
2.49959e-07
3.04917e-07
1.78433e-07
5.71577e-09
1.68789e-07
2.37384e-05
3.11687e-05
2.3012e-05
3.05304e-06
9.63582e-06
5.85965e-06
7.35051e-06
9.05492e-06
1.00262e-05
9.14045e-16
5.11564e-15
2.57709e-14
8.64169e-13
3.99891e-12
6.70157e-12
6.5204e-12
4.52401e-12
2.62005e-08
3.01982e-07
3.04917e-07
2.39146e-07
1.8324e-09
1.99468e-09
6.36865e-06
2.76715e-05
2.31031e-06
2.28914e-06
5.03208e-05
0.000150201
0.000208616
0.000190276
6.1702e-05
1.54758e-17
1.01775e-16
2.04648e-14
6.72236e-13
3.98656e-12
8.41447e-12
1.02473e-11
8.39503e-12
3.85161e-09
1.51738e-07
3.04917e-07
1.15584e-07
1.83618e-09
2.18343e-09
1.78943e-10
1.69202e-10
1.87321e-10
2.93162e-09
4.98689e-05
0.000251402
0.00029277
0.000292748
0.000292763
3.91402e-20
5.0287e-18
5.25887e-15
3.02555e-13
2.81553e-12
7.76561e-12
1.07406e-11
1.10743e-11
6.49586e-11
7.86918e-09
2.63616e-08
1.4481e-10
4.90245e-09
1.10607e-08
4.63343e-09
1.53267e-10
1.69202e-10
3.8731e-07
1.33062e-05
1.41563e-05
0.000262289
0.00029277
0.000292748
-1.43071e-18
1.8193e-19
8.02099e-16
7.59593e-14
1.05377e-12
4.86844e-12
1.11603e-11
1.495e-11
1.65562e-11
1.69045e-11
4.27475e-11
1.33181e-10
2.45432e-09
1.20028e-08
5.7766e-09
8.59051e-12
2.51932e-08
2.0598e-07
5.53783e-09
1.18335e-08
4.84266e-05
0.000292748
0.000161836
-3.65006e-18
-4.09161e-19
1.3592e-16
1.69624e-14
2.6529e-13
1.83729e-12
8.10685e-12
1.60248e-11
2.06279e-11
1.93924e-10
8.08609e-10
2.51093e-09
3.52364e-09
7.8545e-09
7.41729e-10
8.29437e-12
1.87718e-12
2.98946e-12
7.91831e-11
5.53783e-09
2.93459e-05
0.00029147
0.000219107
-4.98412e-18
-1.14431e-17
2.53552e-17
3.69101e-15
6.02771e-14
5.54808e-13
4.56526e-12
1.23285e-11
1.57566e-11
2.31837e-10
1.72728e-09
3.78626e-09
3.04219e-09
2.97558e-11
2.31375e-11
1.34912e-11
1.46261e-12
1.34956e-12
3.06121e-11
1.69437e-09
1.10269e-06
0.000155334
0.000286946
-5.19362e-18
-1.18755e-17
1.74699e-18
7.15119e-16
1.28073e-14
1.3193e-13
1.67015e-12
6.34835e-12
1.12615e-11
1.80899e-10
1.85355e-09
3.36197e-09
9.0368e-10
2.39474e-11
2.47507e-11
8.8029e-12
7.47783e-13
2.976e-13
1.52145e-12
4.72613e-11
1.48299e-06
3.70385e-05
7.22652e-05
-4.72947e-18
-9.86591e-18
-2.86782e-18
1.06363e-16
2.39306e-15
2.40826e-14
3.93368e-13
2.43446e-12
8.11184e-12
9.88494e-11
7.98176e-10
1.14878e-09
1.51639e-10
6.46756e-11
2.11362e-11
3.19245e-12
3.98537e-13
2.57672e-13
2.90174e-13
1.51068e-12
4.72574e-11
1.38588e-09
2.42099e-08
-3.92151e-18
-7.15576e-18
-1.06576e-17
1.13916e-17
3.68973e-16
4.56146e-15
8.78371e-14
8.07477e-13
4.45478e-12
2.42172e-11
7.86016e-11
8.57243e-11
6.18633e-11
6.06219e-11
1.19159e-11
1.46305e-12
2.61099e-13
2.47469e-13
1.0436e-12
2.67004e-12
6.35395e-12
6.67808e-11
1.25307e-09
-2.97526e-18
-4.39136e-18
-9.06488e-18
3.02134e-19
4.34716e-17
8.74483e-16
2.17524e-14
3.64287e-13
2.21374e-12
3.82469e-12
1.72791e-12
4.22383e-12
1.45074e-11
1.68834e-11
2.75683e-12
4.98408e-13
9.43128e-14
1.19133e-13
8.64958e-13
3.37925e-12
1.0605e-11
1.7377e-11
8.74959e-11
-2.05519e-18
-2.35662e-18
-5.80572e-18
-7.83181e-19
3.6284e-18
1.65675e-16
4.81906e-15
1.07292e-13
7.19411e-13
1.13975e-12
8.32366e-13
5.54586e-13
8.29653e-13
9.04468e-13
3.82944e-13
1.10121e-13
2.26309e-14
2.033e-14
2.48326e-13
2.10247e-12
1.14404e-11
4.72473e-11
1.29813e-10
-1.28371e-18
-1.09947e-18
-3.11537e-18
-9.83805e-19
3.02285e-19
3.44733e-17
8.44702e-16
1.21554e-14
8.70942e-14
2.28174e-13
3.3943e-13
2.65112e-13
8.75297e-14
2.20537e-14
1.51051e-14
8.15207e-15
4.16389e-15
4.15039e-15
5.54992e-14
8.58282e-13
7.65503e-12
3.85848e-11
1.22852e-10
-7.20759e-19
-4.39093e-19
-1.40802e-18
-5.86485e-19
2.99317e-20
5.77261e-18
1.277e-16
1.27581e-15
8.7383e-15
3.11826e-14
5.85902e-14
6.0862e-14
1.78366e-14
4.97413e-15
4.43406e-16
1.54836e-16
2.19562e-16
9.20449e-16
1.87918e-14
2.86993e-13
3.08442e-12
2.0928e-11
8.33605e-11
-3.62135e-19
-1.47271e-19
-5.33028e-19
-2.52741e-19
1.6725e-21
6.41158e-19
1.73787e-17
2.16738e-16
1.52116e-15
4.23657e-15
5.6965e-15
5.24966e-15
2.27685e-15
7.61821e-16
6.08803e-17
5.26213e-18
4.66654e-18
2.24744e-16
6.91268e-15
1.07077e-13
1.04973e-12
7.86539e-12
3.93749e-11
-1.62314e-19
-4.05704e-20
-1.67166e-19
-8.64271e-20
-1.71351e-21
5.11821e-20
2.17259e-18
3.24807e-17
1.98122e-16
4.31501e-16
4.74136e-16
3.8147e-16
2.12945e-16
6.77636e-17
7.87229e-18
1.14562e-19
5.66375e-19
5.53267e-17
2.30791e-15
4.317e-14
4.13892e-13
2.79199e-12
1.46812e-11
-6.4793e-20
-8.96337e-21
-4.2954e-20
-2.39335e-20
-2.19892e-21
3.28102e-21
2.14982e-19
3.34048e-18
1.67402e-17
3.40416e-17
3.99168e-17
3.65464e-17
2.07163e-17
5.04513e-18
6.50573e-20
-4.03629e-19
3.48385e-20
1.14832e-17
6.75415e-16
1.61243e-14
1.69225e-13
1.169e-12
8.13796e-12
-2.30322e-20
-1.5523e-21
-8.98071e-21
-5.4045e-21
-8.1062e-22
1.30071e-22
1.3675e-20
2.33944e-19
1.13806e-18
2.44699e-18
3.12692e-18
3.09063e-18
1.46024e-18
3.57255e-21
-5.01533e-19
-7.54865e-19
5.62838e-22
1.71596e-18
1.70672e-16
5.44254e-15
7.03046e-14
5.51433e-13
5.07972e-12
-7.30118e-21
-2.06852e-22
-1.52505e-21
-1.00266e-21
-1.88482e-22
3.06107e-24
4.85089e-22
1.05012e-20
5.81892e-20
1.33921e-19
1.72446e-19
1.21692e-19
1.57859e-21
-1.93912e-19
-5.74415e-19
-6.53621e-19
-1.83556e-19
2.69348e-19
3.86439e-17
1.65067e-15
2.83031e-14
2.76196e-13
3.17954e-12
-2.06982e-21
-2.11544e-23
-2.11439e-22
-1.54439e-22
-3.26937e-23
3.16198e-26
9.04194e-24
2.75486e-22
1.7257e-21
3.42838e-21
1.91724e-21
2.47042e-37
-3.85843e-20
-1.81137e-19
-3.53191e-19
-3.71233e-19
-1.5355e-19
5.37154e-20
9.46814e-18
5.31418e-16
1.17456e-14
1.37962e-13
1.81951e-12
-5.26846e-22
-1.73966e-24
-2.44152e-23
-2.00935e-23
-4.56288e-24
6.24628e-29
4.79088e-26
2.34497e-24
1.07225e-23
3.08619e-24
-1.5306e-22
-4.94951e-21
-3.05817e-20
-9.04663e-20
-1.52649e-19
-1.55507e-19
-7.27209e-20
1.31431e-20
2.72742e-18
2.01318e-16
5.49659e-15
6.65843e-14
7.78351e-13
-1.20966e-22
-1.20676e-25
-2.40674e-24
-2.25285e-24
-5.37239e-25
-1.67539e-26
-6.70235e-26
1.128e-27
-1.9511e-25
-4.85768e-23
-5.44161e-22
-3.14781e-21
-1.27898e-20
-3.20826e-20
-5.07419e-20
-5.10541e-20
-2.50905e-20
3.59593e-21
7.69481e-19
7.27838e-17
2.56109e-15
3.10691e-14
2.42123e-13
-2.51653e-23
-1.4002e-26
-2.07212e-25
-2.21854e-25
-5.54632e-26
-1.06255e-26
-8.07773e-26
-5.23791e-25
-4.11489e-24
-3.38836e-23
-2.36902e-22
-1.11054e-21
-3.84424e-21
-8.90946e-21
-1.36387e-20
-1.3673e-20
-6.87259e-21
8.7201e-22
1.75224e-19
1.99222e-17
9.57558e-16
1.31138e-14
7.48639e-14
-4.76089e-24
-5.65235e-27
-1.58833e-26
-1.95129e-26
-5.23789e-27
-3.7252e-27
-3.24887e-26
-2.43021e-25
-1.7393e-24
-1.16148e-23
-6.74574e-23
-2.87704e-22
-9.18369e-22
-2.03731e-21
-3.06345e-21
-3.07328e-21
-1.55699e-21
1.67969e-22
2.9484e-20
3.7822e-18
2.52005e-16
4.39589e-15
2.50357e-14
-8.21222e-25
-1.84773e-27
-1.10152e-27
-1.55494e-27
-4.78126e-28
-9.291e-28
-8.57154e-27
-6.66604e-26
-4.60742e-25
-2.82754e-24
-1.4872e-23
-6.00192e-23
-1.82907e-22
-3.95307e-22
-5.8838e-22
-5.91527e-22
-2.98393e-22
2.53623e-23
3.67235e-21
5.14114e-19
4.65843e-17
1.07581e-15
7.15357e-15
-1.29361e-25
-4.39999e-28
-7.00942e-29
-1.13717e-28
-4.47886e-29
-1.8104e-28
-1.71778e-27
-1.35893e-26
-9.24612e-26
-5.43545e-25
-2.70102e-24
-1.05301e-23
-3.12174e-23
-6.64039e-23
-9.81994e-23
-9.89433e-23
-4.91116e-23
2.75045e-24
3.49929e-22
5.13341e-20
6.2939e-18
1.94118e-16
1.53809e-15
-1.86249e-26
-8.3949e-29
-4.16834e-30
-7.72887e-30
-4.44171e-30
-2.90301e-29
-2.7992e-28
-2.23767e-27
-1.51261e-26
-8.69048e-26
-4.17958e-25
-1.59529e-24
-4.64972e-24
-9.79044e-24
-1.44188e-23
-1.45515e-23
-7.00551e-24
2.04586e-25
2.73662e-23
3.84128e-21
6.36893e-19
2.74805e-17
2.59482e-16
-2.45174e-27
-1.36833e-29
-2.39708e-31
-4.94771e-31
-4.57281e-31
-3.96714e-30
-3.86617e-29
-3.11535e-28
-2.10271e-27
-1.19408e-26
-5.63693e-26
-2.12335e-25
-6.12471e-25
-1.28131e-24
-1.88181e-24
-1.89903e-24
-8.7152e-25
1.35729e-26
2.06869e-24
2.51518e-22
5.36944e-20
3.32376e-18
3.7535e-17
-2.94926e-28
-1.9528e-30
-1.43636e-32
-3.02952e-32
-4.67269e-32
-4.74166e-31
-4.65841e-30
-3.77945e-29
-2.55432e-28
-1.44265e-27
-6.73967e-27
-2.51862e-26
-7.21876e-26
-1.5037e-25
-2.20319e-25
-2.21849e-25
-9.50504e-26
1.33794e-27
1.7928e-25
1.92306e-23
4.77767e-21
3.82665e-19
4.90251e-18
-3.23845e-29
-2.45417e-31
-9.9447e-34
-1.80559e-33
-4.57113e-33
-5.0559e-32
-5.00132e-31
-4.08302e-30
-2.76767e-29
-1.56094e-28
-7.25335e-28
-2.69717e-27
-7.69797e-27
-1.59832e-26
-2.33557e-26
-2.34052e-26
-9.14266e-27
1.70649e-28
1.7844e-26
1.96858e-24
5.18916e-22
4.44061e-20
5.85733e-19
-3.24309e-30
-2.72971e-32
-8.16934e-35
-1.06625e-34
-4.20345e-34
-4.88314e-33
-4.86085e-32
-3.99194e-31
-2.71679e-30
-1.534e-29
-7.11612e-29
-2.63962e-28
-7.50905e-28
-1.55399e-27
-2.26376e-27
-2.25103e-27
-7.8174e-28
1.86394e-29
1.79044e-27
2.30711e-25
5.9425e-23
4.75814e-21
6.13055e-20
-2.96182e-31
-2.70916e-33
-7.24715e-36
-6.32632e-36
-3.61261e-35
-4.32308e-34
-4.32871e-33
-3.57597e-32
-2.44533e-31
-1.3848e-30
-6.42877e-30
-2.38327e-29
-6.76619e-29
-1.39578e-28
-2.02528e-28
-1.99237e-28
-6.00212e-29
1.48815e-30
1.54585e-28
2.32503e-26
5.33318e-24
3.88875e-22
5.10429e-21
-2.46949e-32
-2.40992e-34
-6.25603e-37
-3.7945e-37
-2.90263e-36
-3.5396e-35
-3.56465e-34
-2.96263e-33
-2.03673e-32
-1.15851e-31
-5.39266e-31
-2.00138e-30
-5.67704e-30
-1.1681e-29
-1.68791e-29
-1.63805e-29
-4.18148e-30
8.07505e-32
9.77671e-30
1.54554e-27
2.92606e-25
2.03672e-23
3.00492e-22
-1.88519e-33
-1.91834e-35
-4.91022e-38
-2.29402e-38
-2.18509e-37
-2.69817e-36
-2.73307e-35
-2.28532e-34
-1.58081e-33
-9.04415e-33
-4.22855e-32
-1.57358e-31
-4.46592e-31
-9.17433e-31
-1.32084e-30
-1.26287e-30
-2.66401e-31
2.86723e-33
3.97271e-31
5.91249e-29
9.01084e-27
6.33366e-25
1.11827e-23
-1.32549e-34
-1.3742e-36
-3.47228e-39
-1.38435e-39
-1.54516e-38
-1.92426e-37
-1.96045e-36
-1.64995e-35
-1.1494e-34
-6.62255e-34
-3.11547e-33
-1.16462e-32
-3.31244e-32
-6.80261e-32
-9.76825e-32
-9.20091e-32
-1.56435e-32
6.85499e-35
1.01874e-32
1.40038e-30
1.79057e-28
1.24498e-26
2.51604e-25
-8.65701e-36
-8.96374e-38
-2.22686e-40
-8.24292e-41
-1.02948e-39
-1.28942e-38
-1.32147e-37
-1.11992e-36
-7.8641e-36
-4.56899e-35
-2.16632e-34
-8.15e-34
-2.32733e-33
-4.78566e-33
-6.86354e-33
-6.37402e-33
-8.52715e-34
1.21618e-36
1.92261e-34
2.59675e-32
3.00412e-30
1.92814e-28
3.91576e-27
-5.30196e-37
-5.26556e-39
-1.25372e-41
-4.79312e-42
-6.47771e-41
-8.14293e-40
-8.39713e-39
-7.16784e-38
-5.07877e-37
-2.97936e-36
-1.42607e-35
-5.41001e-35
-1.55419e-34
-3.20652e-34
-4.60252e-34
-4.22129e-34
-4.34493e-35
9.59752e-39
1.69877e-36
2.37495e-34
2.56697e-32
1.51073e-30
2.941e-29
0.999954
0.999974
0.999974
0.999974
0.99997
0.999973
0.999974
0.999973
0.999961
0.999959
0.999951
0.999936
0.729132
0.756217
0.736526
0.697312
0.100652
0.107999
0.0623498
0.0432467
1.13918e-05
1.66917e-05
3.82049e-05
0.000120107
1.28683e-05
1.32479e-05
3.01999e-05
4.47077e-05
0.00025661
5.24219e-05
4.72119e-05
5.79391e-05
0.00029209
0.000248533
5.69794e-05
5.68168e-05
6.53886e-05
7.13244e-05
5.69898e-05
5.73401e-05
5.88319e-05
5.79819e-05
5.76152e-05
5.75131e-05
0.000287536
0.000283192
0.000255677
0.000265081
8.33634e-05
0.000236356
0.000274454
0.000274635
2.25213e-07
3.13846e-05
0.000110091
0.000134095
1.39744e-08
9.05233e-08
2.14981e-07
3.76404e-07
8.99897e-10
4.02417e-09
1.28558e-08
2.69162e-08
2.12188e-10
4.31338e-10
9.82887e-10
1.9202e-09
2.09191e-10
2.49255e-10
3.29838e-10
4.07197e-10
1.70714e-10
2.35883e-10
2.84157e-10
2.84494e-10
9.41848e-11
1.44981e-10
1.96233e-10
2.39607e-10
3.88329e-11
6.51802e-11
9.22288e-11
1.19074e-10
3.1094e-11
6.21509e-11
8.74098e-11
1.04287e-10
2.8539e-11
8.69878e-11
1.52873e-10
1.96174e-10
2.38258e-11
1.34035e-10
3.55264e-10
5.3761e-10
1.59527e-11
1.2087e-10
3.8101e-10
6.98903e-10
6.81451e-12
7.04535e-11
2.90427e-10
6.07407e-10
1.53351e-12
2.02495e-11
1.23888e-10
3.45161e-10
2.5003e-13
2.43188e-12
2.2472e-11
9.72698e-11
6.06921e-14
2.02449e-13
1.60976e-12
1.24148e-11
1.73586e-14
4.56982e-14
5.36382e-13
7.38793e-12
4.09934e-15
1.36241e-14
2.63541e-13
5.13622e-12
7.45896e-16
2.89676e-15
5.9184e-14
1.53226e-12
1.11137e-16
3.83255e-16
3.47696e-15
9.18574e-14
1.44297e-17
4.22314e-17
1.15435e-16
7.71737e-16
1.71883e-18
5.53409e-18
1.51187e-17
1.13698e-17
1.91187e-19
8.76784e-19
2.92374e-18
1.10678e-18
1.90848e-20
1.35695e-19
4.78854e-19
1.27952e-19
1.46174e-21
1.5439e-20
5.66061e-20
3.29621e-20
6.44035e-23
8.76121e-22
4.77619e-21
2.73607e-20
1.45083e-24
2.2017e-23
4.05793e-22
1.40487e-20
2.14502e-26
3.55656e-25
3.09975e-23
1.95974e-21
1.74417e-28
2.91806e-27
6.11146e-25
3.72255e-23
0.999971
0.999969
0.999965
0.985193
0.600302
0.737802
0.187673
0.000510717
0.000827244
0.000136946
4.15981e-05
4.12272e-05
4.12671e-05
4.13591e-05
4.15483e-05
4.19722e-05
4.21009e-05
0.150061
0.894499
0.999969
0.999965
0.999956
0.687032
0.218697
0.401619
0.00051008
0.000398447
0.000845361
4.17858e-05
4.12228e-05
4.12272e-05
4.12263e-05
4.12671e-05
4.13591e-05
4.15486e-05
4.19674e-05
0.14285
0.892441
0.999895
0.999936
0.999828
0.307284
0.157633
0.0107227
0.00030667
0.00022442
0.000815501
0.000548189
0.000155498
4.12272e-05
4.12671e-05
4.13591e-05
4.15486e-05
4.18785e-05
4.34106e-05
0.224019
0.89763
0.740009
0.976622
0.92631
0.116004
0.0176386
0.00134943
0.000173479
0.000148604
0.000296169
0.000749808
0.000750033
0.000434238
4.17606e-05
4.17573e-05
4.20251e-05
4.32595e-05
4.86207e-05
0.334974
0.902405
0.254104
0.665124
0.643593
0.00921859
0.00701741
0.00560696
0.000147353
0.000120945
9.00872e-05
0.000249069
0.000361897
0.000212848
4.89293e-05
4.27978e-05
4.5268e-05
4.81545e-05
6.77087e-05
0.444817
0.905502
0.00598185
0.250007
0.389916
0.00813951
0.00667007
0.00583208
0.000127435
8.98907e-05
7.73249e-05
6.7375e-05
6.48201e-05
6.54625e-05
5.83394e-05
5.05366e-05
5.75228e-05
6.55972e-05
0.000150168
0.551229
0.908186
0.000120106
0.0336846
0.513701
0.614728
0.278867
0.000657249
0.000190515
9.44e-05
6.9824e-05
6.4821e-05
6.4821e-05
6.4345e-05
7.24312e-05
8.6221e-05
0.000116689
0.000147752
0.00061709
0.704832
0.909619
5.87119e-05
0.000133866
0.0977106
0.619551
0.631015
0.21771
0.000663621
0.00019143
9.38026e-05
6.95929e-05
6.4648e-05
7.46567e-05
0.000184776
0.000299523
0.000477491
0.00061623
0.19784
0.87192
0.909674
5.73401e-05
6.09927e-05
0.000135994
0.0937956
0.564102
0.561548
0.437623
0.129959
0.000257893
0.000107946
7.36692e-05
0.000264137
0.0011853
0.0154637
0.100303
0.179296
0.530206
0.909656
0.909656
5.75131e-05
5.80085e-05
6.19063e-05
0.000167393
0.0874002
0.49343
0.576657
0.556333
0.280644
0.0811345
0.00800604
0.0609897
0.272168
0.441339
0.701129
0.6952
0.581298
0.604867
0.855647
0.000113772
0.000180951
0.000206884
0.000217896
0.000252867
0.0267466
0.271151
0.483203
0.61933
0.579883
0.470099
0.659244
0.735402
0.743313
0.752132
0.537904
0.244006
0.24424
0.670386
0.000268232
0.000233892
0.000143204
0.000154822
0.00021901
0.000888834
0.114465
0.592647
0.694999
0.695553
0.695357
0.691654
0.662099
0.772958
0.793755
0.498218
0.244443
0.244058
0.763865
0.000273822
7.79255e-05
8.77749e-05
0.000126928
0.000246291
0.0402075
0.515134
0.693448
0.69421
0.694999
0.370643
0.131964
0.103745
0.430748
0.828629
0.924182
0.520899
0.353341
0.928883
8.43173e-05
6.02147e-05
0.000200837
9.56986e-05
1.20045e-06
0.00117124
0.0252549
0.117993
0.178889
0.0787947
0.014424
0.0151794
0.0153666
0.0172379
0.39297
0.924946
0.925157
0.884221
0.928883
6.62413e-07
5.21963e-05
0.000125084
3.39523e-05
3.71357e-08
7.31606e-07
1.15368e-05
0.000291656
0.0002406
0.0011665
0.013667
0.044118
0.0543456
0.0298281
0.25325
0.925157
0.92516
0.925157
0.887382
1.04514e-07
9.62833e-06
1.63173e-05
1.25824e-06
2.46405e-09
3.7134e-08
1.11335e-05
6.48671e-05
2.41743e-05
0.000164659
0.00750371
0.132174
0.168076
0.125027
0.24541
0.750288
0.925157
0.925003
0.787176
7.69801e-09
3.70277e-08
5.22386e-08
2.46405e-09
9.47876e-10
2.387e-09
2.85896e-06
2.25963e-05
4.1329e-06
1.01408e-05
2.83597e-05
0.0346334
0.167376
0.168149
0.144832
0.284738
0.843167
0.924466
0.806329
5.89176e-10
2.4057e-09
3.13334e-09
6.76698e-10
6.19528e-10
6.16938e-10
8.83167e-08
9.03978e-08
2.31509e-07
1.15543e-06
3.41297e-06
6.85094e-06
9.22492e-06
0.0385755
9.79806e-05
0.000761979
0.176312
0.770305
0.820807
3.00652e-10
3.66231e-10
3.98709e-10
5.04677e-10
5.04146e-10
5.06412e-10
5.95324e-10
6.34971e-09
1.66339e-08
5.30615e-08
5.21566e-06
5.53644e-06
6.85103e-06
9.22442e-06
1.99949e-05
9.7979e-05
0.000761935
0.223191
0.663833
2.79646e-10
2.08007e-10
2.13638e-10
7.05373e-10
5.04828e-10
5.04062e-10
5.06423e-10
9.85833e-10
3.32408e-09
7.88053e-09
1.69574e-05
2.97985e-05
1.03502e-05
1.20435e-05
1.56291e-05
3.18802e-05
0.000188754
0.0695432
0.203294
1.52624e-10
1.71286e-10
1.96516e-10
6.18831e-10
6.96198e-09
1.93991e-08
3.04043e-09
3.03559e-09
3.38757e-09
3.84816e-09
1.96632e-05
8.55548e-05
4.02359e-05
1.98635e-05
2.21433e-05
2.89072e-05
7.52812e-05
0.0529202
0.186644
1.19727e-10
1.33121e-10
1.3988e-10
1.40632e-10
1.34346e-08
2.61559e-08
1.35266e-08
3.401e-09
3.51715e-09
3.53053e-09
8.23221e-06
8.57064e-05
7.74728e-05
4.2165e-05
3.23891e-05
3.18452e-05
4.63426e-05
0.0458429
0.28389
2.19777e-10
2.23423e-10
1.90995e-10
1.76865e-10
4.92468e-09
1.31851e-08
3.52858e-09
3.52858e-09
3.52858e-09
3.51715e-09
3.53053e-09
7.84907e-05
9.02174e-05
7.62278e-05
3.70258e-05
2.9878e-05
3.2657e-05
0.0150796
0.28389
6.3593e-10
7.05814e-10
4.85714e-10
2.59215e-10
2.62903e-10
2.34417e-09
1.64993e-07
6.2616e-07
2.00381e-07
3.53053e-09
9.43269e-09
6.46829e-06
4.69449e-05
7.43268e-05
6.7056e-05
2.83483e-05
2.81311e-05
0.00667482
0.0640451
9.79095e-10
1.05806e-09
8.6258e-10
3.05729e-10
2.68453e-10
2.74972e-10
7.80102e-07
8.59027e-07
8.65682e-07
4.5224e-07
4.81344e-08
6.89376e-08
1.3866e-07
4.95387e-05
6.66506e-05
2.55372e-05
2.59879e-05
0.00492592
0.00508223
9.42409e-10
1.06404e-09
9.45569e-10
4.92817e-10
2.74972e-10
2.78441e-10
1.27601e-07
8.4932e-07
8.65682e-07
8.65682e-07
4.52145e-07
1.55781e-07
1.44858e-07
2.55926e-05
6.50994e-05
2.39509e-05
2.42235e-05
0.00626185
0.0682675
6.71068e-10
9.20886e-10
8.50201e-10
7.15673e-10
6.29656e-10
5.95724e-10
6.02633e-10
6.47142e-08
7.77672e-07
8.60609e-07
8.56303e-07
3.25667e-07
1.43875e-07
4.9903e-06
4.62942e-05
2.0586e-05
0.000359238
0.00735983
0.108442
3.15819e-10
6.08653e-10
8.0707e-10
8.17342e-10
6.69082e-10
6.02633e-10
6.36757e-10
5.94085e-08
1.08224e-07
3.07401e-07
8.45381e-07
2.76864e-07
1.50417e-07
1.95222e-05
6.31109e-06
7.11531e-06
0.00465347
0.00635041
0.108463
1.15145e-10
3.51088e-10
6.58402e-10
1.51779e-09
9.5108e-09
4.54946e-09
5.14168e-09
5.42029e-09
2.04089e-08
7.21939e-09
1.22942e-07
7.11075e-08
7.48463e-08
1.71343e-05
2.08352e-07
8.15687e-05
0.00616661
0.00271377
0.108438
6.89475e-11
1.925e-10
6.39899e-11
6.35286e-09
6.79297e-08
4.84757e-08
7.28081e-09
5.60028e-09
7.26231e-09
7.17942e-09
7.21939e-09
7.28799e-09
8.87795e-07
4.19057e-06
1.27459e-07
0.00168667
0.00617788
0.000974639
0.108292
4.7766e-11
1.13445e-10
6.36361e-11
1.25902e-09
7.1154e-08
1.84061e-07
6.07016e-09
5.74168e-09
1.01107e-08
7.19267e-09
7.17933e-09
7.22253e-09
6.7207e-06
2.58745e-06
8.56396e-08
0.00288405
0.00616661
7.45268e-05
0.107897
2.24308e-11
6.6457e-11
6.35886e-11
2.47128e-11
1.3171e-08
4.35025e-07
4.75508e-07
6.07016e-09
2.49988e-07
6.95085e-07
4.41412e-08
5.94188e-07
6.8627e-06
1.25643e-06
7.06538e-08
0.000589759
0.00161571
7.13403e-08
0.0849951
4.81965e-12
2.47356e-11
4.49253e-11
2.46534e-11
1.67342e-11
4.27241e-07
3.0561e-06
1.75372e-06
2.50738e-07
7.13194e-07
1.47856e-06
2.12769e-06
1.98408e-06
1.08471e-07
7.06538e-08
7.06538e-08
7.0997e-08
7.13403e-08
0.0525658
4.27035e-13
4.48458e-12
1.36237e-11
2.32323e-11
1.67042e-11
1.49667e-08
3.17503e-06
5.12008e-06
3.93429e-06
2.23876e-06
4.17882e-06
2.36932e-06
7.55964e-08
7.31251e-08
7.06538e-08
7.15013e-08
7.59319e-08
7.13402e-08
0.0821615
2.95188e-14
4.58239e-13
2.61658e-12
2.1524e-11
1.66883e-11
6.34727e-13
6.11456e-07
5.12313e-06
5.72908e-06
5.72935e-06
5.72534e-06
3.03573e-06
9.91428e-08
7.55959e-08
7.99588e-08
5.45608e-07
8.09222e-07
7.64352e-08
0.113095
3.44466e-15
5.1585e-14
8.84757e-13
1.80834e-11
1.66705e-11
5.97636e-13
1.87363e-08
3.91266e-07
4.29711e-06
5.72534e-06
5.71814e-06
1.90325e-06
1.2336e-07
3.0536e-06
6.66212e-06
1.83634e-06
5.7161e-06
1.42408e-07
0.127421
4.64434e-16
6.00976e-15
2.71054e-13
8.92972e-12
9.5742e-12
5.95615e-13
4.37509e-14
7.99171e-13
1.70955e-07
8.11194e-07
4.67171e-07
1.23691e-08
3.09982e-06
2.83508e-05
1.61113e-05
6.37263e-07
7.66733e-06
1.04683e-06
0.139487
4.86634e-17
4.35011e-16
3.24839e-14
1.32334e-12
1.53375e-12
1.21245e-13
1.46644e-33
0
7.99171e-13
2.3118e-10
2.07325e-09
3.25452e-09
2.92538e-05
2.90706e-05
5.99568e-06
3.96853e-07
1.94569e-05
0.00131152
0.139576
3.4637e-18
1.62017e-17
8.64275e-16
3.35457e-14
3.09812e-14
-1.12567e-13
-4.93209e-14
-1.1848e-13
1.7279e-08
1.26405e-08
2.73897e-09
1.35982e-05
3.02351e-05
1.66847e-05
1.16949e-08
1.21648e-07
6.10325e-05
0.00176003
0.139576
1.55538e-19
4.18499e-19
6.55473e-18
1.39548e-16
-9.28796e-15
-1.03209e-13
-2.99494e-12
-3.81287e-12
2.19703e-07
2.18748e-07
1.23541e-09
1.34355e-05
3.02351e-05
1.73602e-06
2.39798e-09
5.82651e-08
6.06361e-07
0.00152203
0.126688
3.67008e-21
9.0516e-21
6.10222e-20
9.46571e-20
-9.67972e-15
-4.68952e-14
-1.1992e-12
-8.02071e-13
1.14437e-07
1.51163e-07
4.33839e-11
1.80934e-05
8.81491e-06
-1.468e-16
2.2586e-09
4.44605e-06
2.38772e-06
0
0.0198127
5.0448e-23
9.09562e-23
5.03784e-22
-1.89345e-18
-3.45421e-15
-1.1864e-14
-7.51656e-14
-1.40299e-14
-3.55713e-15
-4.16683e-16
4.33837e-11
2.28498e-05
1.39333e-05
-5.61735e-17
-1.74421e-18
-3.46006e-20
-1.42699e-21
-7.32558e-23
-5.25005e-24
)
;

boundaryField
{
    leftWall
    {
        type            zeroGradient;
    }
    rightWall
    {
        type            zeroGradient;
    }
    lowerWall
    {
        type            zeroGradient;
    }
    atmosphere
    {
        type            inletOutlet;
        inletValue      uniform 0;
        value           nonuniform List<scalar> 
46
(
-5.30196e-37
-5.26556e-39
-1.25372e-41
-4.79312e-42
-6.47771e-41
-8.14293e-40
-8.39713e-39
-7.16784e-38
-5.07877e-37
-2.97936e-36
-1.42607e-35
-5.41001e-35
-1.55419e-34
-3.20652e-34
-4.60252e-34
-4.22129e-34
-4.34493e-35
9.59752e-39
1.69877e-36
2.37495e-34
2.56697e-32
1.51073e-30
2.941e-29
1.74417e-28
2.91806e-27
6.11146e-25
3.72255e-23
5.0448e-23
9.09562e-23
5.03784e-22
-1.89345e-18
0
0
0
0
0
0
0
2.28498e-05
1.39333e-05
0
0
0
0
0
-5.25005e-24
)
;
    }
    defaultFaces
    {
        type            empty;
    }
}


// ************************************************************************* //
