/*--------------------------------*- C++ -*----------------------------------*\
| =========                 |                                                 |
| \\      /  F ield         | OpenFOAM: The Open Source CFD Toolbox           |
|  \\    /   O peration     | Version:  2206                                  |
|   \\  /    A nd           | Website:  www.openfoam.com                      |
|    \\/     M anipulation  |                                                 |
\*---------------------------------------------------------------------------*/
FoamFile
{
    version     2.0;
    format      ascii;
    arch        "LSB;label=32;scalar=64";
    class       volScalarField;
    location    "0.275";
    object      alpha.water;
}
// * * * * * * * * * * * * * * * * * * * * * * * * * * * * * * * * * * * * * //

dimensions      [0 0 0 0 0 0 0];

internalField   nonuniform List<scalar> 
2268
(
1
1
1
1
1
1
1
1
1
1
1
0.999999
0.999999
0.999999
0.999999
0.999999
1
1
1
1
0.914062
0.794891
0.794573
1
1
1
1
1
1
1
1
1
1
1
1
1
1
1
1
1
1
1
1
0.988159
0.932749
0.913345
1
1
1
1
1
1
1
1
1
1
1
1
1
1
1
1
1
1
1
1
1
0.999794
0.994068
1
1
1
1
1
1
1
1
1
1
1
1
1
1
1
1
1
1
1
1
1
0.999748
0.981608
1
1
1
1
1
1
1
1
1
1
1
1
1
1
1
1
1
1
1
1
1
0.999994
0.981579
1
1
1
1
1
1
1
1
1
1
1
1
1
1
1
1
1
1
1
1
1
1
0.981949
1
1
1
1
1
1
1
1
1
1
1
1
1
1
1
1
1
1
1
1
1
1
0.982502
1
1
1
1
1
1
1
1
1
1
1
1
1
1
1
1
1
1
1
1
1
1
0.982743
8.23867e-11
3.51457e-11
1.3433e-12
1.42391e-14
4.52824e-16
1.4575e-17
4.45521e-19
1.49527e-20
5.85651e-22
2.61991e-23
1.14159e-24
4.018e-26
1.28093e-27
3.63352e-29
8.73299e-31
1.66872e-32
2.29144e-34
1.6101e-36
9.56233e-37
9.54735e-10
7.32752e-10
3.42431e-11
2.37136e-13
1.71915e-14
5.67529e-16
1.87888e-17
6.98254e-19
2.91556e-20
1.38621e-21
6.58776e-23
2.48062e-24
8.36623e-26
2.51305e-27
6.34262e-29
1.23522e-30
1.5967e-32
8.72156e-35
9.56233e-37
3.57618e-08
2.31968e-08
7.72479e-10
3.17278e-12
2.36067e-13
1.55766e-14
6.20205e-16
2.3071e-17
9.38313e-19
4.0977e-20
1.80301e-21
6.57986e-23
2.1238e-24
5.98489e-26
1.37684e-27
2.29608e-29
2.07732e-31
1.29646e-33
4.97293e-35
7.38842e-07
5.3841e-07
1.80895e-08
5.04585e-11
2.80881e-12
2.10795e-13
1.33154e-14
5.33235e-16
2.06896e-17
8.48452e-19
3.45666e-20
1.22517e-21
3.82624e-23
1.01887e-24
2.11147e-26
2.86944e-28
3.48358e-30
2.48416e-32
1.24289e-33
9.71416e-06
9.31277e-06
3.63627e-07
6.44629e-10
3.01976e-11
1.38926e-12
1.54641e-13
7.48537e-15
2.39163e-16
1.00877e-17
4.63156e-19
1.66027e-20
5.04735e-22
1.27734e-23
2.34819e-25
3.63005e-27
5.02131e-29
3.65362e-31
2.37012e-32
0.000124476
0.000129084
8.06736e-06
6.16485e-09
2.09836e-10
1.28359e-11
6.0196e-13
3.79203e-14
7.8361e-16
2.5938e-17
3.51149e-18
1.81511e-19
5.17365e-21
1.20352e-22
2.14557e-24
3.97602e-26
5.66714e-28
4.21437e-30
3.47393e-31
0.000613356
0.000783639
3.82894e-05
2.24099e-08
1.65026e-09
1.42966e-10
9.95724e-12
2.87415e-13
1.06268e-14
4.33252e-16
2.23073e-17
3.13876e-18
9.63581e-20
1.89014e-21
4.01699e-23
8.46011e-25
1.23247e-26
9.24162e-29
4.00785e-30
0.00119821
0.00140113
3.6854e-06
7.52396e-07
2.4338e-08
1.48919e-09
1.10905e-10
6.88061e-12
2.72049e-13
1.06269e-14
9.08028e-16
1.46941e-16
4.17276e-18
6.199e-20
1.43044e-21
3.87206e-23
6.74003e-25
5.16478e-27
8.77562e-29
1
1
1
1
1
1
1
1
1
1
1
1
1
1
1
1
1
1
1
1
1
1
0.983541
1
1
1
1
1
1
1
1
1
1
1
1
1
1
1
1
1
1
1
1
1
1
0.998412
1
1
0.999999
0.999999
1
1
0.999999
0.999999
0.999998
0.999998
0.999997
0.999994
0.999988
0.999985
0.999978
0.999974
0.999984
0.999997
1
1
1
1
0.999999
1
0.999997
0.99999
0.999992
0.999993
0.999992
0.999989
0.999981
0.999966
0.999943
0.999909
0.999833
0.999686
0.9995
0.989337
0.951963
0.89447
0.821584
0.832017
0.892978
0.999997
0.999999
0.999893
0.999997
0.99992
0.999879
0.999892
0.99989
0.999867
0.999804
0.999671
0.999428
0.999036
0.989636
0.943474
0.836944
0.656784
0.443
0.25965
0.13906
0.0771891
0.07656
0.102382
0.180372
0.347051
0.587257
0.99992
0.998853
0.998607
0.99867
0.998535
0.993567
0.972639
0.922153
0.830469
0.678086
0.458902
0.256116
0.0584081
3.40187e-05
4.00541e-05
4.55336e-05
4.53385e-05
4.53001e-05
5.94443e-05
0.000169369
0.000444421
0.000994327
0.0174517
0.971368
0.756403
0.715893
0.695422
0.630432
0.506611
0.364159
0.225449
0.100691
7.72566e-08
1.29512e-08
1.27385e-07
4.04714e-06
2.03159e-05
3.40191e-05
4.00543e-05
4.50809e-05
4.53205e-05
4.50435e-05
9.80146e-05
0.000236082
0.000451597
0.000998231
0.347978
0.0851685
0.0502177
0.0371716
0.00740607
7.38983e-14
1.89229e-13
-3.60343e-13
-9.79338e-12
1.7859e-10
2.26693e-09
1.30198e-08
1.27459e-07
4.38033e-06
7.80199e-05
5.53776e-05
4.53385e-05
4.5265e-05
4.573e-05
0.00111438
0.00221653
0.00229556
0.00231093
-1.43942e-19
-3.48806e-20
2.46519e-34
1.33899e-18
1.21768e-16
4.30524e-15
7.40707e-14
2.35873e-13
1.93724e-13
4.10064e-11
1.78651e-10
2.26633e-09
5.36556e-06
0.000239927
0.000502187
0.000376367
4.80072e-05
4.57344e-05
0.000272471
0.0020758
0.00216321
0.00221653
0.00222624
-7.0127e-19
-1.74377e-19
1.27561e-17
6.6808e-16
1.98606e-14
7.24848e-13
1.76224e-12
3.92034e-13
-6.08984e-12
1.24939e-10
9.33434e-10
1.44789e-08
0.000360705
0.000502187
0.000502187
0.000502187
7.39129e-05
5.13703e-05
0.000963188
0.00205832
0.00213147
0.000943404
1.52907e-05
-1.13895e-18
-5.89043e-19
1.49416e-16
1.45443e-14
4.6905e-13
6.47904e-12
5.62175e-12
5.37996e-13
1.58022e-09
9.08983e-10
5.12693e-09
2.56982e-05
0.000495628
0.000498908
0.00050201
0.000204442
8.75701e-05
0.000367739
0.00157934
0.00181011
0.000447156
2.92515e-06
4.19103e-07
-1.72892e-18
-1.73064e-18
3.50844e-16
5.08202e-14
1.66134e-12
1.25585e-11
7.02311e-12
8.9852e-13
2.1321e-08
4.10858e-08
7.49388e-07
2.32169e-06
0.000231331
0.000495628
0.000405732
0.000412336
0.00104596
0.00131835
0.00131894
0.000259562
2.54726e-07
3.15375e-08
4.58019e-09
-2.68364e-18
-4.33931e-18
4.48007e-16
8.42729e-14
2.85046e-12
1.49754e-11
7.57517e-12
1.39986e-12
2.91602e-08
1.48743e-07
2.98303e-06
7.91828e-08
7.47055e-08
0.000430101
0.000665534
0.000968668
0.000978654
0.000705735
-1.21177e-09
6.81296e-10
-1.00143e-13
-3.1419e-11
1.10061e-10
-3.83537e-18
-9.38669e-18
4.59625e-16
9.82785e-14
3.44798e-12
1.51461e-11
1.20362e-11
3.10579e-12
1.96897e-08
1.45366e-07
7.58093e-08
2.81625e-08
3.77883e-08
2.17616e-05
0.000218695
0.000353365
-5.63204e-13
-8.22876e-10
-1.01963e-11
-4.65444e-12
2.24586e-11
4.17323e-11
9.30923e-11
-5.02097e-18
-1.74494e-17
2.79174e-16
9.55826e-14
2.96112e-12
1.43122e-11
1.93647e-11
1.06009e-10
2.90391e-11
6.42736e-08
2.85948e-08
2.71237e-08
3.17843e-07
2.62339e-13
1.90624e-13
2.00651e-13
1.93425e-13
3.43747e-13
3.68219e-12
6.91231e-12
2.32046e-11
4.45735e-11
3.90801e-10
-5.98022e-18
-2.78552e-17
5.91571e-17
5.25211e-14
1.53783e-12
7.382e-12
2.08705e-11
6.52817e-11
2.87387e-11
1.47624e-10
6.03247e-08
2.2797e-08
3.21006e-11
9.7025e-12
5.85388e-13
1.91372e-13
2.52672e-12
1.07005e-11
3.26463e-11
7.15504e-11
1.3538e-10
1.32121e-10
7.79471e-10
-6.40176e-18
-3.79241e-17
-1.5497e-17
1.47307e-14
4.64529e-13
2.27684e-12
1.44378e-11
2.95538e-11
2.88464e-11
1.34383e-08
6.03247e-08
5.23218e-08
4.08873e-09
2.70483e-12
6.98474e-13
2.32549e-13
2.45575e-12
8.39941e-12
1.41606e-11
2.86934e-11
8.72253e-11
7.89101e-11
1.42649e-09
-6.03745e-18
-4.32871e-17
-4.62617e-17
2.31782e-15
8.39359e-14
6.01904e-13
9.07187e-12
3.54491e-11
2.8739e-11
4.97455e-09
2.43843e-08
2.28979e-08
5.8493e-09
8.82206e-12
1.58257e-13
8.3694e-14
3.29868e-13
1.38916e-12
5.55991e-12
1.90197e-11
5.99173e-11
7.01207e-11
1.79576e-09
-4.86846e-18
-4.02636e-17
-6.34044e-17
1.74347e-16
9.22131e-15
1.37102e-13
4.50997e-12
3.32655e-11
3.87987e-11
8.60674e-13
6.11722e-13
6.11722e-13
6.26673e-10
8.37601e-11
2.82282e-13
3.73584e-15
6.23482e-14
4.92303e-13
3.06792e-12
1.43633e-11
4.74862e-11
1.21631e-10
1.91015e-09
-3.21618e-18
-2.92837e-17
-6.2764e-17
1.55604e-18
5.17241e-16
3.28252e-14
1.37612e-12
1.06581e-11
2.91772e-11
1.44735e-11
3.79839e-12
1.12199e-12
1.3172e-14
5.63278e-15
5.21322e-15
2.48467e-15
1.66569e-14
2.33672e-13
2.03659e-12
1.15687e-11
4.47227e-11
1.26099e-10
1.92576e-09
-1.63932e-18
-1.5764e-17
-4.20055e-17
-1.45251e-18
8.27345e-18
8.55549e-15
2.68907e-13
2.18866e-12
8.00889e-12
1.41411e-11
7.95102e-12
2.57014e-12
5.96087e-13
5.07681e-14
9.35791e-16
6.93859e-16
6.81438e-15
1.28678e-13
1.35156e-12
8.87563e-12
3.87688e-11
1.18585e-10
1.39298e-09
-5.93401e-19
-5.81197e-18
-1.67063e-17
-4.74142e-19
4.31143e-19
1.7683e-15
5.12221e-14
4.81946e-13
1.73282e-12
6.82254e-12
4.38166e-12
1.69883e-12
2.89703e-13
1.92356e-14
1.59318e-16
1.18784e-16
2.65575e-15
6.15966e-14
7.81771e-13
6.09759e-12
2.90661e-11
1.20229e-10
8.50185e-10
-1.35182e-19
-1.3028e-18
-3.72595e-18
-8.64415e-20
4.82573e-20
1.64147e-16
7.30748e-15
1.02182e-13
4.05778e-13
8.50304e-13
6.48392e-13
2.94002e-13
7.1825e-14
5.43865e-15
-1.60316e-32
-1.51038e-19
8.87161e-16
2.51277e-14
3.95099e-13
3.80031e-12
2.14485e-11
9.2142e-11
6.84973e-10
-1.57382e-20
-1.53637e-19
-4.66336e-19
-8.78279e-21
-1.68923e-41
1.06403e-19
3.03189e-16
1.22881e-14
6.41738e-14
9.26824e-14
1.28371e-13
5.74414e-14
1.55553e-14
6.80546e-16
-2.93987e-16
-3.26787e-17
2.98625e-16
9.62984e-15
1.85452e-13
2.24902e-12
1.52556e-11
7.52889e-11
5.23018e-10
-1.82852e-32
-1.01517e-30
-2.57027e-29
-3.83423e-28
2.12821e-25
3.61741e-23
7.73331e-19
3.86648e-16
3.23957e-15
6.32471e-15
5.74797e-15
2.30763e-15
8.62876e-16
0
-2.6233e-16
-1.87489e-17
1.18288e-16
3.78611e-15
8.42923e-14
1.26589e-12
1.03371e-11
5.67402e-11
3.81202e-10
-2.88934e-32
-1.7402e-30
-4.85585e-29
-8.11309e-28
-8.83939e-27
-2.09232e-26
3.18601e-22
3.76269e-19
5.02936e-18
1.40572e-17
1.84319e-17
1.42958e-17
-4.88201e-18
-7.78049e-17
-1.09164e-16
-5.20891e-18
4.63414e-17
1.42335e-15
3.49916e-14
6.46087e-13
6.44668e-12
3.99049e-11
2.74522e-10
-3.43057e-32
-2.23294e-30
-6.81355e-29
-1.31218e-27
-1.84695e-26
-2.11771e-25
-2.2007e-24
9.36635e-22
4.12838e-20
2.30067e-19
4.13603e-19
5.44477e-20
-3.86752e-18
-1.78132e-17
-2.20679e-17
-6.34384e-19
1.56164e-17
4.85658e-16
1.29667e-14
2.9529e-13
3.67337e-12
2.70289e-11
2.10374e-10
-2.88758e-32
-1.99784e-30
-6.62936e-29
-1.41423e-27
-2.26972e-26
-3.08835e-25
-3.69942e-24
-3.25857e-23
-1.25214e-22
-3.64449e-22
-1.6583e-20
-2.37514e-19
-1.2446e-18
-3.03546e-18
-2.71924e-18
-3.64294e-20
5.12556e-18
1.66941e-16
4.72472e-15
1.26493e-13
1.93931e-12
1.77852e-11
1.62204e-10
-1.56347e-32
-1.13984e-30
-4.03059e-29
-9.17427e-28
-1.56316e-26
-2.25429e-25
-2.99904e-24
-3.62531e-23
-3.61951e-22
-2.71299e-21
-1.46197e-20
-5.70336e-20
-1.60807e-19
-2.83976e-19
-6.18318e-20
3.31642e-21
1.60441e-18
5.64248e-17
1.72752e-15
5.06384e-14
9.33748e-13
1.06947e-11
1.13248e-10
-4.23022e-33
-3.22704e-31
-1.19834e-29
-2.81801e-28
-4.70699e-27
-5.93589e-26
-5.86856e-25
-4.66655e-24
-3.04324e-23
-1.6443e-22
-7.37898e-22
-2.70238e-21
-7.42207e-21
-1.06367e-20
-1.4537e-24
4.56919e-21
4.38628e-19
1.61029e-17
5.35872e-16
1.73359e-14
3.79556e-13
5.43666e-12
7.14568e-11
-5.62817e-35
-3.98968e-33
-1.40859e-31
-3.23073e-30
-5.41415e-29
-7.0684e-28
-7.45528e-27
-6.50607e-26
-4.76214e-25
-2.93526e-24
-1.5067e-23
-6.03046e-23
-1.45188e-22
2.62009e-26
1.02987e-23
1.09307e-21
1.0174e-19
4.02791e-18
1.40859e-16
4.56239e-15
1.15743e-13
2.22374e-12
4.17621e-11
-1.65248e-37
-1.29462e-35
-5.097e-34
-1.31983e-32
-2.52688e-31
-3.80755e-30
-4.68346e-29
-4.81079e-28
-4.16088e-27
-2.99753e-26
-1.70282e-25
-6.0588e-25
3.90285e-29
1.22424e-26
1.56691e-24
4.14376e-22
2.12535e-20
9.02773e-19
3.39309e-17
1.13976e-15
3.11828e-14
7.68924e-13
2.32387e-11
-3.20515e-40
-2.84053e-38
-1.27754e-36
-3.82069e-35
-8.52349e-34
-1.50881e-32
-2.18425e-31
-2.62497e-30
-2.6042e-29
-2.02865e-28
-9.84314e-28
3.41176e-33
2.01593e-30
1.59215e-27
4.65556e-25
5.92197e-23
4.26886e-21
2.19368e-19
9.39688e-18
3.31497e-16
9.1623e-15
3.13764e-13
1.2386e-11
-1.45084e-43
-1.61304e-41
-9.06858e-40
-3.38223e-38
-9.35111e-37
-2.02522e-35
-3.52039e-34
-4.88332e-33
-4.98072e-32
-2.67965e-31
-3.91276e-43
2.74272e-33
9.81193e-31
6.78519e-28
8.40694e-26
1.29974e-23
9.66751e-22
5.21774e-20
2.3079e-18
8.33277e-17
2.29262e-15
1.15438e-13
4.10744e-12
-4.99523e-48
-7.65701e-46
-5.68202e-44
-2.70463e-42
-9.12673e-41
-2.20594e-39
-3.3874e-38
-1.65779e-37
-1.11179e-50
-1.2695e-47
2.4021e-36
1.02293e-33
2.90555e-31
5.2612e-29
1.33514e-26
1.78046e-24
1.2738e-22
7.07978e-21
3.19656e-19
1.17184e-17
3.24866e-16
1.97618e-14
6.52844e-13
-2.78525e-52
-4.794e-50
-3.7699e-48
-1.67958e-46
-3.59235e-45
0
-6.96978e-61
-8.15663e-57
6.70707e-43
5.79797e-40
3.12695e-37
1.13419e-34
-5.39333e-31
5.35931e-30
1.26199e-27
1.32453e-25
9.76327e-24
5.63736e-22
2.63456e-20
9.98421e-19
2.90911e-17
1.93604e-15
6.39364e-14
-5.90671e-56
-1.30615e-53
-1.0961e-51
-3.55841e-50
0
2.27625e-54
1.36413e-50
3.13904e-47
3.92551e-44
3.01137e-41
1.51944e-38
-4.09685e-34
1.34088e-33
3.1451e-31
5.10718e-29
5.37542e-27
4.17255e-25
2.58336e-23
1.29375e-21
5.28523e-20
1.73488e-18
1.39475e-16
4.16175e-15
-2.8199e-60
-6.90492e-58
-3.20555e-56
0
2.1562e-61
4.12314e-56
1.92975e-52
4.20634e-49
5.25234e-46
-1.03965e-43
-2.60621e-38
8.24466e-38
2.87635e-35
5.73014e-33
8.365e-31
8.95421e-29
7.47145e-27
4.94269e-25
2.61687e-23
1.11736e-21
3.87361e-20
6.45217e-18
1.85918e-16
-1.13743e-65
-4.67696e-69
-8.46673e-73
0
5.65978e-75
2.3182e-71
-2.52293e-55
-6.13434e-52
-2.06508e-46
-2.31859e-43
2.13378e-43
9.61976e-41
3.16265e-38
7.74256e-36
6.41187e-34
2.12544e-31
2.35552e-29
2.05227e-27
1.41912e-25
7.85608e-24
3.50941e-22
2.26013e-19
5.41558e-18
0
2.27663e-96
-2.6872e-78
-1.53178e-73
-1.04238e-63
-1.31437e-59
-3.27155e-56
-2.94802e-53
9.97069e-55
1.67505e-51
1.89558e-48
1.50248e-45
8.58464e-43
-4.9356e-37
1.20393e-37
2.89286e-35
5.34991e-33
7.69031e-31
8.66824e-29
7.72564e-27
5.48738e-25
3.82264e-21
7.53226e-20
1.30931e-168
1.31703e-95
-1.55462e-77
-8.86062e-73
-7.88108e-69
0
-4.42172e-77
-4.17311e-64
-2.03942e-63
4.65639e-63
-3.45498e-60
-1.30711e-52
-1.36282e-43
3.31842e-49
3.10632e-46
2.24293e-43
-3.02806e-40
-5.5739e-37
-1.13476e-34
-1.92138e-32
-4.03763e-29
8.2917e-24
2.61505e-22
0
-9.36098e-110
-2.7641e-90
-1.19254e-85
0
0
0
-6.32431e-75
-3.4972e-74
-4.0832e-70
-1.23063e-63
-3.26632e-56
0
0
0
-9.47373e-49
-4.50748e-45
-2.84186e-42
-1.63263e-39
-3.08685e-36
-3.35741e-33
2.85282e-30
8.01235e-29
0.994338
0.999418
0.83934
0.0917626
0.999189
0.999716
0.988616
0.951726
0.999893
0.999751
0.999717
0.999472
0.999757
0.999716
0.999699
0.999652
0.842344
0.999699
0.999652
0.999421
0.0575008
0.118256
0.196589
0.294117
0.00151697
0.000869772
0.000708277
0.000786102
0.00173334
0.000279427
0.000145581
9.71721e-05
0.00115188
4.07548e-05
7.62933e-06
-1.75104e-05
2.13597e-06
4.29269e-06
7.68015e-07
7.21753e-09
1.19039e-07
1.94026e-07
8.52805e-08
2.39497e-08
1.58603e-09
1.29757e-08
5.46391e-08
4.28775e-08
2.20653e-10
1.88556e-09
1.57323e-08
2.03199e-08
1.10066e-10
3.64195e-09
9.88163e-09
3.28465e-09
1.69034e-09
3.37309e-09
2.62318e-09
2.30319e-09
1.86362e-09
2.35004e-09
2.26726e-09
2.27511e-09
2.60553e-09
2.60553e-09
2.3839e-09
2.30319e-09
2.51823e-09
2.54736e-09
2.35678e-09
2.35991e-09
2.41135e-09
1.66076e-09
1.532e-09
2.06625e-09
1.58365e-09
1.1315e-09
2.96652e-09
2.53644e-09
8.24452e-10
7.68599e-10
4.15221e-09
5.95562e-09
6.53419e-10
6.50049e-10
8.69461e-09
1.35957e-08
5.2834e-10
5.24832e-10
2.00872e-08
1.22518e-07
3.83228e-10
4.13969e-10
5.12581e-08
2.07544e-07
3.24249e-10
1.76236e-09
1.06662e-07
1.92128e-07
2.51275e-10
1.10554e-08
9.3687e-08
1.93191e-07
2.12861e-10
9.62876e-09
6.64915e-08
2.22518e-07
2.54267e-10
6.40297e-09
5.10738e-08
1.68693e-07
1.7037e-10
4.74646e-09
3.30807e-08
6.91743e-08
1.17899e-10
2.85057e-09
2.00523e-08
6.70727e-08
1.7292e-10
2.0538e-09
1.34536e-08
6.49081e-08
1.20997e-10
1.26878e-09
8.19717e-09
3.90032e-08
6.63881e-11
5.58455e-10
3.57828e-09
2.0062e-08
2.07495e-11
1.73402e-10
1.04588e-09
5.40613e-09
3.04416e-12
2.0253e-11
1.1683e-10
6.26819e-10
2.73844e-13
2.06591e-12
1.04398e-11
5.81023e-11
1.38541e-14
1.78452e-13
1.22578e-12
4.15587e-12
4.56026e-16
1.28721e-14
1.00922e-13
2.26839e-13
8.57027e-18
3.5388e-16
3.69531e-15
7.97739e-15
5.0157e-20
2.69745e-18
4.98787e-17
1.26601e-16
2.84191e-24
1.23262e-22
9.10852e-21
-3.83557e-19
-7.04106e-28
-2.12708e-26
-3.79516e-26
-7.28499e-22
0.096962
0.000299827
7.57776e-06
3.45776e-06
4.25792e-07
4.71591e-08
4.69934e-09
3.20216e-10
1.13911e-11
4.81791e-13
3.95459e-14
7.04691e-15
2.73312e-16
6.93122e-18
1.20446e-19
2.08785e-21
4.36724e-23
4.08358e-25
5.11281e-27
0.796336
0.0512506
0.00812273
9.35183e-05
1.90772e-05
1.34465e-06
1.00773e-07
9.12544e-09
3.96912e-10
1.93034e-11
8.55542e-13
2.04119e-13
1.69861e-14
5.61164e-16
1.07536e-17
1.25136e-19
2.83493e-21
4.27211e-23
3.92175e-25
0.998593
0.954898
0.554415
0.0481552
0.000509522
5.48372e-05
4.33993e-06
3.50435e-07
1.89128e-08
9.84899e-10
4.98066e-11
2.19116e-12
7.96823e-14
8.62695e-15
2.98603e-16
5.49274e-18
1.82601e-19
2.99598e-21
3.56117e-23
0.999421
0.998588
0.996225
0.906478
0.312805
0.0133568
0.000122358
7.90367e-06
5.50075e-07
3.65841e-08
2.00626e-09
9.46017e-11
2.93691e-12
1.65813e-14
4.54043e-15
2.3553e-16
6.48371e-18
1.61659e-19
2.64489e-21
0.998588
0.997311
0.996686
0.9956
0.980552
0.5171
0.0276715
0.000152703
1.34575e-05
1.1122e-06
7.30485e-08
4.2021e-09
1.82086e-10
2.60198e-12
-2.51137e-13
-1.31433e-16
3.97174e-16
7.36406e-18
1.24121e-19
0.475129
0.920786
0.9956
0.990871
0.985393
0.981853
0.583587
0.0383303
0.000298415
2.88008e-05
2.31637e-06
1.53954e-07
9.2982e-09
4.30715e-10
1.10871e-11
-1.36518e-13
7.32774e-15
4.4104e-16
1.24427e-17
0.00498492
0.079602
0.218044
0.693468
0.981853
0.962974
0.945792
0.521364
0.0253447
0.00054894
5.12232e-05
4.02692e-06
2.97588e-07
2.02657e-08
1.12467e-09
4.65701e-11
1.23417e-12
-1.1934e-15
1.43019e-15
0.000107092
0.000292135
0.000513418
0.015514
0.232469
0.87836
0.924155
0.860876
0.322158
0.00642289
0.000766437
7.1707e-05
6.57242e-06
5.69908e-07
4.30119e-08
2.64173e-09
1.14718e-10
4.10222e-13
9.34407e-14
1.04976e-05
1.57275e-05
4.66988e-05
0.000101962
0.000402816
0.248323
0.836087
0.844595
0.630353
0.103303
0.00352962
0.000525106
6.66009e-05
7.10283e-06
5.986e-07
3.69479e-08
1.40902e-09
1.24488e-11
3.13211e-12
-1.05781e-06
4.00617e-07
4.16327e-06
8.88881e-06
2.18384e-05
0.000401523
0.470543
0.810696
0.751838
0.254501
0.00815696
0.00141333
0.000212001
2.59361e-05
2.47159e-06
1.71328e-07
7.35886e-09
1.21821e-10
4.07028e-11
-5.57663e-08
3.37114e-08
9.18588e-08
7.29599e-07
1.82115e-06
1.92833e-05
0.0905376
0.688222
0.703716
0.431895
0.0363667
0.00253198
0.000425047
5.79331e-05
6.09728e-06
4.6451e-07
2.23785e-08
6.65404e-10
2.45896e-10
1.12379e-08
1.07598e-08
2.1756e-08
8.75887e-08
2.45531e-07
1.11065e-06
1.9284e-05
0.467153
0.675075
0.515694
0.0740704
0.00369755
0.000661519
9.60159e-05
1.0739e-05
8.73621e-07
4.6019e-08
1.84067e-09
8.69782e-10
9.71055e-09
1.68409e-08
2.15901e-08
3.51087e-08
8.79962e-08
2.45533e-07
1.11065e-06
0.263183
0.635778
0.525113
0.116787
0.00447764
0.000822392
0.000122908
1.42009e-05
1.1972e-06
6.67964e-08
3.46633e-09
2.08846e-09
2.48217e-09
4.85148e-08
9.28152e-07
7.40815e-07
3.59497e-07
4.26162e-07
5.39692e-07
0.141254
0.575449
0.505269
0.129622
0.0045477
0.000842202
0.000126742
1.47911e-05
1.26758e-06
7.21974e-08
4.85986e-09
3.67349e-09
2.39448e-09
2.48217e-09
2.59036e-06
5.27634e-06
8.65483e-07
5.39692e-07
8.08936e-07
0.100787
0.514865
0.459295
0.12093
0.00405051
0.000739249
0.000109409
1.26577e-05
1.08613e-06
6.29598e-08
4.02078e-09
2.72876e-09
2.30319e-09
7.52964e-07
1.59994e-06
3.61761e-06
2.3397e-06
8.19497e-07
1.33777e-06
0.114687
0.472644
0.396322
0.0867758
0.00311143
0.000554775
7.99775e-05
9.10546e-06
7.77219e-07
4.50847e-08
2.72866e-09
1.60042e-09
2.36668e-09
3.62331e-09
7.0484e-05
9.41704e-05
2.3655e-05
1.33777e-06
2.94251e-06
0.139059
0.435844
0.318337
0.0392673
0.00209023
0.000361096
5.54788e-05
6.21486e-06
5.00635e-07
2.77064e-08
1.60042e-09
8.73932e-10
2.49572e-09
2.00248e-08
0.000157508
0.00015587
6.45983e-05
4.48258e-06
0.000660469
0.18704
0.409287
0.233128
0.0137473
0.00127771
0.000233276
3.38352e-05
3.66795e-06
2.92871e-07
1.50506e-08
8.46795e-10
4.52572e-10
2.90963e-09
4.17492e-08
7.81645e-05
8.20953e-05
3.00952e-05
1.17869e-05
0.0689836
0.293487
0.389037
0.143022
0.00390288
0.000714166
0.000126523
1.89257e-05
2.29288e-06
1.8534e-07
1.18007e-08
6.70642e-10
2.15912e-10
6.11959e-08
4.07029e-06
5.21373e-06
8.05352e-05
2.82902e-05
0.0143047
0.261317
0.303142
0.263125
0.0605895
0.00208007
0.000376546
8.3116e-05
1.37385e-05
1.6184e-06
1.45024e-07
1.02399e-08
5.84097e-10
9.80197e-11
3.65685e-07
1.76912e-05
6.61499e-06
0.000481076
0.00280274
0.141875
0.264954
0.268884
0.102139
0.0113451
0.00141451
0.000288324
6.40114e-05
9.78199e-06
1.08157e-06
1.04975e-07
8.37182e-09
5.71657e-10
4.35722e-11
3.08408e-07
1.77968e-05
9.43369e-06
0.00322008
0.0834874
0.207061
0.212794
0.103493
0.00918985
0.00283182
0.0011859
0.000272153
4.2958e-05
5.31971e-06
6.05519e-07
6.06411e-08
5.09348e-09
3.90534e-10
2.12738e-11
1.32293e-06
1.73413e-06
8.91079e-06
1.23017e-05
0.109009
0.178289
0.0752211
0.00885313
0.00291583
0.00086807
0.000340673
0.00015457
2.36058e-05
2.5828e-06
2.92141e-07
3.02982e-08
2.72321e-09
2.31409e-10
1.06062e-11
2.26658e-06
2.07115e-06
7.04843e-05
2.08555e-05
0.111327
0.176339
0.0659628
0.00330845
0.00101301
0.000318418
7.30856e-05
2.01019e-05
8.9678e-06
1.20719e-06
1.27552e-07
1.35909e-08
1.36963e-09
1.2161e-10
4.81747e-12
2.03619e-06
8.61528e-06
7.06428e-05
3.04323e-05
0.0970644
0.172672
0.168775
0.0104392
0.000350749
9.92906e-05
2.17406e-05
5.08654e-06
1.3844e-06
4.48558e-07
5.48284e-08
5.8785e-09
6.76038e-10
5.81195e-11
2.07004e-12
1.26743e-06
4.50701e-06
4.17759e-05
4.22196e-05
0.0112798
0.166258
0.163319
0.0195242
0.00015314
3.28075e-05
7.50696e-06
1.5247e-06
2.67681e-07
8.5514e-08
2.15308e-08
2.64715e-09
3.30293e-10
2.58401e-11
8.61344e-13
8.48159e-07
2.84829e-06
3.4983e-06
0.00031346
0.000263731
0.154992
0.160734
0.155998
0.00958622
2.82325e-05
3.14839e-06
5.76773e-07
1.01804e-07
1.68623e-08
6.26624e-09
1.23855e-09
1.57075e-10
1.09636e-11
3.51219e-13
8.18658e-07
3.53519e-06
1.12127e-05
0.000186227
0.000174358
0.123349
0.160734
0.160339
0.0112723
0.000148161
8.51927e-06
4.95595e-07
4.51378e-08
5.7879e-09
1.04771e-09
5.67042e-10
7.13702e-11
4.51954e-12
1.39731e-13
6.60685e-07
3.52649e-06
2.37022e-05
9.08534e-05
0.000188413
0.0331632
0.160339
0.159075
0.143904
0.0114808
6.81817e-05
2.93289e-06
7.96507e-08
2.93568e-09
4.14259e-10
2.49881e-10
3.00056e-11
1.81165e-12
5.29258e-14
4.26304e-07
1.53325e-06
1.73485e-05
0.000121126
0.00156308
0.00160823
0.153322
0.158206
0.158183
0.0194091
9.96238e-05
4.07059e-06
8.82345e-08
1.78546e-09
3.22814e-10
1.15295e-10
1.17489e-11
6.9344e-13
1.90856e-14
3.43005e-07
1.17834e-06
6.96249e-06
3.5692e-05
0.000964276
0.00799288
0.0526368
0.139576
0.09529
0.017775
0.000416545
3.59353e-05
1.68858e-06
3.44443e-08
2.71126e-10
4.68037e-11
4.31891e-12
2.5266e-13
6.7993e-15
2.15085e-07
8.41744e-07
5.7274e-06
3.5277e-05
0.000475652
0.00337108
0.00507393
0.0271857
0.0080498
0.00590929
0.000478408
2.71572e-05
8.88851e-07
1.76638e-08
1.41358e-10
1.60637e-11
1.52492e-12
9.08349e-14
2.40524e-15
1.02101e-07
4.74894e-07
3.28123e-06
2.03317e-05
0.000101022
0.00142486
0.00258043
0.00222418
0.00148433
0.000161287
2.93444e-05
1.14623e-07
-6.57208e-09
-2.56907e-10
4.00926e-12
5.50781e-12
5.34496e-13
3.26117e-14
8.3224e-16
2.5739e-08
1.49535e-07
1.09923e-06
6.89603e-06
2.97173e-05
0.000494488
0.000875149
0.000552934
0.000467518
5.65127e-05
2.81029e-06
-2.08241e-08
-4.57169e-09
-7.3304e-11
1.25072e-12
1.96692e-12
1.82767e-13
1.1518e-14
2.81189e-16
3.11256e-09
2.55177e-08
1.79827e-07
1.01738e-06
4.73364e-06
0.000111509
0.000182046
0.000125068
0.000122942
1.81863e-05
9.51665e-07
-4.68375e-09
-1.55718e-09
-2.42129e-11
6.21492e-13
6.7149e-13
6.11038e-14
3.99593e-15
9.26896e-17
3.0945e-10
2.82703e-09
2.12336e-08
1.31768e-07
7.22169e-07
1.80609e-05
2.8802e-05
2.62704e-05
2.96219e-05
5.32517e-06
3.11866e-07
1.0547e-09
-3.9738e-10
-7.11242e-12
3.07174e-13
2.18572e-13
2.00034e-14
1.35965e-15
2.98112e-17
2.39909e-11
2.45312e-10
2.11331e-09
1.59413e-08
1.01714e-07
1.44129e-06
3.53067e-06
5.21466e-06
6.43098e-06
1.4465e-06
9.12804e-08
1.15319e-09
-8.98202e-11
-1.67768e-12
1.62963e-13
6.89159e-14
6.42007e-15
4.5319e-16
9.36335e-18
1.48951e-12
1.72558e-11
1.95841e-10
1.86176e-09
1.63954e-08
9.01518e-08
3.85371e-07
9.93543e-07
1.32481e-06
3.70345e-07
2.4972e-08
4.93868e-10
-1.80698e-11
-2.82571e-13
1.41257e-13
2.11833e-14
2.02189e-15
1.4787e-16
2.87652e-18
5.95654e-14
1.03812e-12
1.57393e-11
1.86633e-10
1.83732e-09
1.33805e-08
6.51669e-08
1.8387e-07
2.65597e-07
9.09925e-08
6.53372e-09
1.44441e-10
-1.67584e-12
9.10963e-15
6.93398e-14
6.4395e-15
6.25499e-16
4.72334e-17
8.69917e-19
1.23281e-15
5.33541e-14
1.55369e-12
2.16116e-11
1.9341e-10
1.82898e-09
1.06231e-08
3.35597e-08
5.3185e-08
2.16064e-08
1.69469e-09
4.88357e-11
3.31142e-13
2.96233e-13
1.73969e-14
1.93291e-15
1.90385e-16
1.47784e-17
2.1089e-19
-9.11438e-18
1.25613e-15
1.458e-13
1.59009e-12
1.62029e-11
2.06243e-10
1.61758e-09
6.61949e-09
1.37538e-08
5.02647e-09
4.23805e-10
1.81936e-11
2.87246e-12
2.39341e-13
5.28458e-15
5.89636e-16
5.87182e-17
4.66559e-18
6.01981e-20
-2.16185e-21
8.59452e-19
9.58843e-16
2.18564e-14
7.61269e-13
1.66203e-11
2.1488e-10
1.71071e-09
6.25694e-09
1.16618e-09
1.06189e-10
8.42151e-12
1.76979e-12
3.80005e-14
8.61174e-16
9.56525e-17
9.69414e-18
7.95742e-19
6.01981e-20
)
;

boundaryField
{
    leftWall
    {
        type            zeroGradient;
    }
    rightWall
    {
        type            zeroGradient;
    }
    lowerWall
    {
        type            zeroGradient;
    }
    atmosphere
    {
        type            inletOutlet;
        inletValue      uniform 0;
        value           nonuniform List<scalar> 
46
(
0
0
0
0
0
0
0
0
0
0
0
0
0
0
0
0
0
0
0
0
0
0
0
0
0
0
0
0
0
0
2.18564e-14
7.61269e-13
1.66203e-11
2.1488e-10
1.71071e-09
6.25694e-09
1.16618e-09
1.06189e-10
8.42151e-12
1.76979e-12
3.80005e-14
8.61174e-16
9.56525e-17
9.69414e-18
7.95742e-19
6.01981e-20
)
;
    }
    defaultFaces
    {
        type            empty;
    }
}


// ************************************************************************* //
