/*--------------------------------*- C++ -*----------------------------------*\
| =========                 |                                                 |
| \\      /  F ield         | OpenFOAM: The Open Source CFD Toolbox           |
|  \\    /   O peration     | Version:  2206                                  |
|   \\  /    A nd           | Website:  www.openfoam.com                      |
|    \\/     M anipulation  |                                                 |
\*---------------------------------------------------------------------------*/
FoamFile
{
    version     2.0;
    format      ascii;
    arch        "LSB;label=32;scalar=64";
    class       volVectorField;
    location    "0.275";
    object      U;
}
// * * * * * * * * * * * * * * * * * * * * * * * * * * * * * * * * * * * * * //

dimensions      [0 1 -1 0 0 0 0];

internalField   nonuniform List<vector> 
2268
(
(-0.0156204 0.000730954 0)
(0.0115236 -0.0111861 0)
(0.0780354 -0.0166428 0)
(0.150991 -0.0169608 0)
(0.219769 -0.0149756 0)
(0.279194 -0.0127522 0)
(0.329723 -0.0111131 0)
(0.374505 -0.0101269 0)
(0.416264 -0.00956549 0)
(0.456236 -0.00913993 0)
(0.49439 -0.00860589 0)
(0.529842 -0.00777982 0)
(0.561037 -0.00654957 0)
(0.585956 -0.00468085 0)
(0.601364 -0.0017729 0)
(0.602275 0.00446672 0)
(0.573774 0.0160346 0)
(0.499366 0.0339225 0)
(0.360582 0.0539652 0)
(0.155432 0.0623442 0)
(-0.0974939 0.0231563 0)
(-0.247167 -0.0470864 0)
(-0.074236 -0.0912672 0)
(-0.0152387 0.00180604 0)
(0.0129088 -0.0338011 0)
(0.0798169 -0.0501579 0)
(0.152741 -0.0510934 0)
(0.221168 -0.0451813 0)
(0.280285 -0.0385643 0)
(0.330803 -0.0337004 0)
(0.375875 -0.0307918 0)
(0.418129 -0.0291439 0)
(0.458711 -0.02789 0)
(0.49754 -0.0263038 0)
(0.533705 -0.0238597 0)
(0.565765 -0.020169 0)
(0.591691 -0.0147549 0)
(0.609625 -0.0067192 0)
(0.61801 0.00609085 0)
(0.622417 0.0272043 0)
(0.620733 0.0605326 0)
(0.591546 0.106323 0)
(0.481329 0.151982 0)
(0.255905 0.144553 0)
(-0.059124 0.0683449 0)
(0.0486155 -0.12362 0)
(-0.0143953 0.00228355 0)
(0.0152108 -0.056451 0)
(0.0822024 -0.0835163 0)
(0.154468 -0.0848203 0)
(0.22168 -0.0749303 0)
(0.279689 -0.0640202 0)
(0.329673 -0.056106 0)
(0.374812 -0.0514464 0)
(0.417556 -0.0488296 0)
(0.458867 -0.0468092 0)
(0.49854 -0.0442023 0)
(0.535633 -0.0401721 0)
(0.568713 -0.0340807 0)
(0.596011 -0.025317 0)
(0.615375 -0.0130004 0)
(0.624458 0.00357936 0)
(0.621379 0.0272408 0)
(0.608342 0.0638625 0)
(0.598641 0.121447 0)
(0.585152 0.197509 0)
(0.503452 0.237084 0)
(0.259511 0.148644 0)
(0.16302 -0.0665175 0)
(-0.0130525 0.00195007 0)
(0.0186494 -0.0795676 0)
(0.0855676 -0.116767 0)
(0.156821 -0.117978 0)
(0.222315 -0.104054 0)
(0.27886 -0.0890832 0)
(0.328231 -0.0784437 0)
(0.37361 -0.0723144 0)
(0.417169 -0.0689125 0)
(0.459596 -0.0662231 0)
(0.500528 -0.0626492 0)
(0.538976 -0.0570804 0)
(0.57356 -0.0487012 0)
(0.602608 -0.0367451 0)
(0.624236 -0.020332 0)
(0.636406 0.00199662 0)
(0.637201 0.0320417 0)
(0.624338 0.072682 0)
(0.601836 0.128502 0)
(0.588629 0.207884 0)
(0.583571 0.282485 0)
(0.435398 0.244869 0)
(0.249589 0.0567692 0)
(-0.0112475 0.00048513 0)
(0.0230281 -0.103379 0)
(0.0896801 -0.149724 0)
(0.159458 -0.150239 0)
(0.222762 -0.132285 0)
(0.277589 -0.113639 0)
(0.326357 -0.10074 0)
(0.37217 -0.0935059 0)
(0.416821 -0.0895385 0)
(0.460662 -0.0862879 0)
(0.503146 -0.0818032 0)
(0.543248 -0.0747563 0)
(0.579659 -0.0641861 0)
(0.610858 -0.0492226 0)
(0.63518 -0.0288519 0)
(0.650887 -0.00168813 0)
(0.656417 0.0341374 0)
(0.649822 0.0808797 0)
(0.629897 0.139165 0)
(0.596676 0.212435 0)
(0.588263 0.302075 0)
(0.49883 0.331427 0)
(0.30194 0.227233 0)
(-0.00898007 -0.0025071 0)
(0.0281281 -0.127823 0)
(0.0943187 -0.182196 0)
(0.162132 -0.181368 0)
(0.222852 -0.159444 0)
(0.275844 -0.13763 0)
(0.324127 -0.123052 0)
(0.370598 -0.115149 0)
(0.416574 -0.110862 0)
(0.462036 -0.107169 0)
(0.506257 -0.101846 0)
(0.548205 -0.0934157 0)
(0.586676 -0.0808129 0)
(0.620324 -0.0630857 0)
(0.647702 -0.0391582 0)
(0.667291 -0.00760522 0)
(0.677717 0.033404 0)
(0.67691 0.0858422 0)
(0.664614 0.150811 0)
(0.629624 0.225885 0)
(0.59451 0.321446 0)
(0.519043 0.409186 0)
(0.32753 0.415581 0)
(-0.00630484 -0.00707725 0)
(0.0337304 -0.152881 0)
(0.0992777 -0.214161 0)
(0.164671 -0.211394 0)
(0.222537 -0.185596 0)
(0.273722 -0.161122 0)
(0.321727 -0.145428 0)
(0.369093 -0.137254 0)
(0.416577 -0.132856 0)
(0.463782 -0.128802 0)
(0.509844 -0.122686 0)
(0.55378 -0.11295 0)
(0.594547 -0.0984686 0)
(0.630972 -0.0782294 0)
(0.661756 -0.0511249 0)
(0.685523 -0.0157574 0)
(0.700987 0.0297605 0)
(0.706154 0.0872943 0)
(0.700473 0.159246 0)
(0.675427 0.243444 0)
(0.629121 0.348922 0)
(0.549489 0.477917 0)
(0.373141 0.603808 0)
(-0.00330977 -0.0133308 0)
(0.0395982 -0.178697 0)
(0.104287 -0.245558 0)
(0.166955 -0.240296 0)
(0.221939 -0.210852 0)
(0.271531 -0.184277 0)
(0.319535 -0.167973 0)
(0.368006 -0.159836 0)
(0.417123 -0.155444 0)
(0.466152 -0.151032 0)
(0.514176 -0.144098 0)
(0.560344 -0.13307 0)
(0.603794 -0.116803 0)
(0.643444 -0.0942121 0)
(0.67802 -0.0641307 0)
(0.706268 -0.0251081 0)
(0.726856 0.0246903 0)
(0.738209 0.0871012 0)
(0.738759 0.164804 0)
(0.725991 0.258537 0)
(0.6865 0.378653 0)
(0.618087 0.547331 0)
(0.36481 0.848936 0)
(0.0783166 -0.0340665 0)
(0.193965 -0.0149754 0)
(0.218958 0.00254307 0)
(0.20184 0.00291155 0)
(0.196105 0.000864272 0)
(0.197956 -6.17271e-05 0)
(0.202093 -0.000719691 0)
(0.207496 -0.000760953 0)
(0.21211 -0.000423083 0)
(0.21416 0.000273523 0)
(0.211616 0.00122799 0)
(0.203871 0.00227869 0)
(0.19061 0.00335265 0)
(0.171946 0.00437517 0)
(0.148292 0.00528802 0)
(0.120189 0.00609416 0)
(0.088471 0.00670431 0)
(0.0540612 0.00712156 0)
(0.0181065 0.00743683 0)
(0.0800052 -0.0951674 0)
(0.198044 -0.0406613 0)
(0.217287 0.00696087 0)
(0.201089 0.0046933 0)
(0.200413 -0.000386944 0)
(0.205559 -0.00215707 0)
(0.211945 -0.00374457 0)
(0.219765 -0.00390617 0)
(0.226606 -0.00262105 0)
(0.230755 -0.000336371 0)
(0.23065 0.00275989 0)
(0.225381 0.00627157 0)
(0.213904 0.00996624 0)
(0.195623 0.0136148 0)
(0.170702 0.0169594 0)
(0.13972 0.0198912 0)
(0.103613 0.0221807 0)
(0.0636239 0.0237674 0)
(0.0212634 0.0243742 0)
(0.108361 -0.164855 0)
(0.23095 -0.0637847 0)
(0.229944 0.0164013 0)
(0.199464 0.00611153 0)
(0.198928 -0.00195281 0)
(0.204666 -0.00441867 0)
(0.211198 -0.00699741 0)
(0.21954 -0.00735815 0)
(0.226867 -0.00512826 0)
(0.231259 -0.00128975 0)
(0.230985 0.00387946 0)
(0.225279 0.00989176 0)
(0.213374 0.0163384 0)
(0.194824 0.0228333 0)
(0.169811 0.0288959 0)
(0.138883 0.0341989 0)
(0.102945 0.0384124 0)
(0.0632031 0.0413295 0)
(0.0211005 0.0424746 0)
(0.155425 -0.263228 0)
(0.282459 -0.0799661 0)
(0.242238 0.040056 0)
(0.191717 0.00859014 0)
(0.195665 -0.00303501 0)
(0.203109 -0.00657692 0)
(0.210163 -0.0106232 0)
(0.219687 -0.0110492 0)
(0.228051 -0.00779098 0)
(0.233145 -0.00226483 0)
(0.233311 0.00506034 0)
(0.227721 0.0136466 0)
(0.215677 0.0228777 0)
(0.196816 0.0321709 0)
(0.1714 0.0409058 0)
(0.140054 0.0485536 0)
(0.103729 0.0546553 0)
(0.063654 0.0588744 0)
(0.0212543 0.060554 0)
(0.18088 -0.363305 0)
(0.358071 -0.0818238 0)
(0.252935 0.0798179 0)
(0.173908 0.00878953 0)
(0.190587 -0.00456161 0)
(0.200725 -0.00908417 0)
(0.208676 -0.0148898 0)
(0.220028 -0.0153313 0)
(0.229885 -0.0109453 0)
(0.236007 -0.00359866 0)
(0.236954 0.00601874 0)
(0.231854 0.0173175 0)
(0.219973 0.0294582 0)
(0.20096 0.0416504 0)
(0.175114 0.0531049 0)
(0.143123 0.0631235 0)
(0.106003 0.0711075 0)
(0.0650525 0.0766395 0)
(0.0217318 0.0788349 0)
(0.111695 -0.496446 0)
(0.407034 -0.0578955 0)
(0.257178 0.137002 0)
(0.140231 0.00560366 0)
(0.182038 -0.00622927 0)
(0.196307 -0.0124486 0)
(0.206257 -0.020185 0)
(0.220362 -0.0203978 0)
(0.232211 -0.0146768 0)
(0.2397 -0.00535846 0)
(0.241679 0.0066967 0)
(0.237242 0.0208469 0)
(0.225617 0.0360239 0)
(0.206466 0.051269 0)
(0.180114 0.0655695 0)
(0.147309 0.0780462 0)
(0.109145 0.0879809 0)
(0.066999 0.094871 0)
(0.022392 0.0976012 0)
(-0.00415709 -0.70092 0)
(0.327233 -0.0914034 0)
(0.196456 0.184968 0)
(0.0810001 -0.00312575 0)
(0.172199 -0.0112001 0)
(0.190206 -0.018861 0)
(0.203041 -0.0273095 0)
(0.220761 -0.0265954 0)
(0.235009 -0.0192127 0)
(0.244169 -0.00775184 0)
(0.247456 0.00694356 0)
(0.243857 0.0241532 0)
(0.232555 0.0425645 0)
(0.213237 0.0610552 0)
(0.186258 0.0783641 0)
(0.152451 0.0934349 0)
(0.113005 0.105415 0)
(0.06939 0.113719 0)
(0.0232017 0.117016 0)
(-0.0615184 -0.769941 0)
(0.0721793 -0.110639 0)
(-0.0683914 0.298692 0)
(-0.0217915 -0.0328059 0)
(0.16972 -0.0233256 0)
(0.187783 -0.0274003 0)
(0.201392 -0.0353131 0)
(0.222366 -0.0335801 0)
(0.238916 -0.0244766 0)
(0.249729 -0.0108127 0)
(0.254454 0.00670021 0)
(0.251818 0.0271762 0)
(0.240873 0.0490519 0)
(0.221329 0.070977 0)
(0.193576 0.0914615 0)
(0.158555 0.109271 0)
(0.117575 0.123391 0)
(0.0722166 0.133169 0)
(0.0241562 0.137067 0)
(0.00156699 -0.028066 0)
(0.0486722 -0.220694 0)
(0.111682 -0.292506 0)
(0.169976 -0.282142 0)
(0.220983 -0.248104 0)
(0.268895 -0.220054 0)
(0.317529 -0.204188 0)
(0.368047 -0.196849 0)
(0.419835 -0.192784 0)
(0.471828 -0.188016 0)
(0.523179 -0.180133 0)
(0.573253 -0.167644 0)
(0.621296 -0.1493 0)
(0.666178 -0.123813 0)
(0.7068 -0.0899662 0)
(0.742603 -0.046225 0)
(0.772623 0.00957576 0)
(0.795254 0.0802285 0)
(0.807536 0.167846 0)
(0.814862 0.274123 0)
(0.804509 0.413136 0)
(0.850975 0.581235 0)
(0.84281 0.985037 0)
(0.00828014 -0.0548214 0)
(0.0609103 -0.27922 0)
(0.121422 -0.352757 0)
(0.173753 -0.334268 0)
(0.220082 -0.295848 0)
(0.266806 -0.268403 0)
(0.317088 -0.255055 0)
(0.370638 -0.249857 0)
(0.425901 -0.246842 0)
(0.481569 -0.2422 0)
(0.53693 -0.233901 0)
(0.591492 -0.220427 0)
(0.644401 -0.200058 0)
(0.694674 -0.171024 0)
(0.742396 -0.132701 0)
(0.788734 -0.0840481 0)
(0.834513 -0.0231144 0)
(0.877851 0.04942 0)
(0.913388 0.138474 0)
(0.947269 0.243595 0)
(0.974526 0.371029 0)
(1.04264 0.504624 0)
(1.13763 0.720116 0)
(0.0154804 -0.0918454 0)
(0.0727963 -0.339556 0)
(0.129531 -0.407406 0)
(0.175662 -0.380324 0)
(0.218414 -0.341097 0)
(0.265088 -0.317828 0)
(0.317066 -0.309 0)
(0.372329 -0.306671 0)
(0.428614 -0.3049 0)
(0.484659 -0.300454 0)
(0.540025 -0.291613 0)
(0.594729 -0.276328 0)
(0.648837 -0.252583 0)
(0.703021 -0.21869 0)
(0.760343 -0.178223 0)
(0.823103 -0.129477 0)
(0.88685 -0.0638498 0)
(0.947042 0.0272457 0)
(1.00156 0.137229 0)
(1.04877 0.256872 0)
(1.09391 0.372067 0)
(1.14963 0.47188 0)
(1.2348 0.552894 0)
(0.023388 -0.13841 0)
(0.0840003 -0.400752 0)
(0.133765 -0.456753 0)
(0.172962 -0.422233 0)
(0.212876 -0.385714 0)
(0.259145 -0.368421 0)
(0.310484 -0.363707 0)
(0.363641 -0.362613 0)
(0.416754 -0.36008 0)
(0.469709 -0.353954 0)
(0.523613 -0.342962 0)
(0.580703 -0.327141 0)
(0.646128 -0.306637 0)
(0.721563 -0.282471 0)
(0.809169 -0.263243 0)
(0.913022 -0.23945 0)
(1.01691 -0.193431 0)
(1.09521 -0.119594 0)
(1.14092 -0.0297404 0)
(1.16466 0.0796762 0)
(1.18832 0.202021 0)
(1.22141 0.32863 0)
(1.2826 0.430453 0)
(0.0320912 -0.195688 0)
(0.0965277 -0.458094 0)
(0.13346 -0.495948 0)
(0.163395 -0.457673 0)
(0.200579 -0.427475 0)
(0.24581 -0.416129 0)
(0.295446 -0.413582 0)
(0.347086 -0.412376 0)
(0.401501 -0.410119 0)
(0.462456 -0.40685 0)
(0.53317 -0.404689 0)
(0.618658 -0.406844 0)
(0.733416 -0.417316 0)
(0.865302 -0.423773 0)
(1.00864 -0.425237 0)
(1.16019 -0.395056 0)
(1.28731 -0.289035 0)
(1.34107 -0.123039 0)
(1.33024 0.0660182 0)
(1.28452 0.191763 0)
(1.25997 0.267064 0)
(1.26448 0.330632 0)
(1.29763 0.385478 0)
(0.0442766 -0.270172 0)
(0.12047 -0.50367 0)
(0.136482 -0.518846 0)
(0.154245 -0.48695 0)
(0.192486 -0.469048 0)
(0.24311 -0.464882 0)
(0.301121 -0.467407 0)
(0.366797 -0.473391 0)
(0.446975 -0.483868 0)
(0.551008 -0.502242 0)
(0.66984 -0.524455 0)
(0.826168 -0.558206 0)
(1.04 -0.607871 0)
(1.23806 -0.590321 0)
(1.40818 -0.552948 0)
(1.50056 -0.471105 0)
(1.52085 -0.287332 0)
(1.43329 -0.0394749 0)
(1.23915 0.127678 0)
(1.1597 0.260704 0)
(1.16799 0.336002 0)
(1.21359 0.36407 0)
(1.28009 0.37601 0)
(0.0672532 -0.362803 0)
(0.165938 -0.551859 0)
(0.161147 -0.53243 0)
(0.170817 -0.520179 0)
(0.223628 -0.525138 0)
(0.295887 -0.535354 0)
(0.379892 -0.550794 0)
(0.48364 -0.574964 0)
(0.622163 -0.616514 0)
(0.822656 -0.672879 0)
(0.960419 -0.692172 0)
(1.09863 -0.738671 0)
(1.23173 -0.751378 0)
(1.36005 -0.62782 0)
(1.46313 -0.563293 0)
(1.49334 -0.428361 0)
(1.3982 -0.173913 0)
(1.17585 0.157588 0)
(0.942778 0.358668 0)
(0.950926 0.272952 0)
(1.19022 0.148614 0)
(1.45982 0.243309 0)
(1.62733 0.327425 0)
(0.0766096 -0.487607 0)
(0.205226 -0.63879 0)
(0.226665 -0.537567 0)
(0.250958 -0.559582 0)
(0.332187 -0.613418 0)
(0.418079 -0.638957 0)
(0.508231 -0.658615 0)
(0.59754 -0.692872 0)
(0.676171 -0.768238 0)
(0.775615 -0.739542 0)
(0.916563 -0.751844 0)
(1.0678 -0.816835 0)
(1.21702 -0.861964 0)
(1.35561 -0.825857 0)
(1.46288 -0.689695 0)
(1.51122 -0.424063 0)
(1.42882 -0.0321662 0)
(1.19941 0.354658 0)
(1.1047 0.350917 0)
(1.27431 -0.0358867 0)
(1.43314 -0.215629 0)
(1.61618 -0.17998 0)
(1.8624 0.00602152 0)
(0.00174008 -0.687134 0)
(0.0729023 -0.661025 0)
(0.202832 -0.569135 0)
(0.250192 -0.599474 0)
(0.28973 -0.652366 0)
(0.342209 -0.664571 0)
(0.406464 -0.692671 0)
(0.482149 -0.743729 0)
(0.571304 -0.822229 0)
(0.682916 -0.900187 0)
(0.817222 -0.968072 0)
(0.954921 -1.02235 0)
(1.09799 -1.05481 0)
(1.23045 -0.987416 0)
(1.32178 -0.79482 0)
(1.37327 -0.442093 0)
(1.35327 0.0741963 0)
(1.24996 0.459036 0)
(1.29865 0.270415 0)
(1.39752 -0.0746752 0)
(1.45351 -0.232423 0)
(1.49191 -0.22497 0)
(1.58506 -0.104068 0)
(-0.0273918 -0.627396 0)
(-0.00134234 -0.638181 0)
(0.0874145 -0.676719 0)
(0.169828 -0.687384 0)
(0.229618 -0.711226 0)
(0.282161 -0.743207 0)
(0.33471 -0.786919 0)
(0.400877 -0.851868 0)
(0.477859 -0.946122 0)
(0.57 -1.04032 0)
(0.676155 -1.09569 0)
(0.779648 -1.14214 0)
(0.875658 -1.18532 0)
(0.946724 -1.08551 0)
(0.985416 -0.843004 0)
(1.00711 -0.455498 0)
(1.02165 0.0826029 0)
(1.05625 0.423028 0)
(1.20649 0.164331 0)
(1.28809 -0.131774 0)
(1.30742 -0.268459 0)
(1.30683 -0.256614 0)
(1.28408 -0.198317 0)
(-0.00558186 -0.622452 0)
(0.036292 -0.808087 0)
(0.0941346 -0.769575 0)
(0.146141 -0.752112 0)
(0.194158 -0.767902 0)
(0.239804 -0.798403 0)
(0.281338 -0.841908 0)
(0.330451 -0.910861 0)
(0.377503 -1.01256 0)
(0.427744 -1.11229 0)
(0.485897 -1.1726 0)
(0.550957 -1.21989 0)
(0.551441 -1.23843 0)
(0.53524 -1.09428 0)
(0.526109 -0.792294 0)
(0.500186 -0.375873 0)
(0.536871 0.107461 0)
(0.751109 0.22604 0)
(0.959409 -0.00534732 0)
(1.06609 -0.190547 0)
(1.09743 -0.228953 0)
(1.04705 -0.185957 0)
(1.00891 -0.124449 0)
(0.0283143 -0.654056 0)
(0.0618527 -0.838515 0)
(0.0880551 -0.800692 0)
(0.126948 -0.790409 0)
(0.166061 -0.807805 0)
(0.201573 -0.83511 0)
(0.231726 -0.875577 0)
(0.259249 -0.943444 0)
(0.27169 -1.04223 0)
(0.276531 -1.1402 0)
(0.282642 -1.20539 0)
(0.290218 -1.22253 0)
(0.227564 -1.1926 0)
(0.144468 -1.02499 0)
(0.107994 -0.70655 0)
(0.110978 -0.37235 0)
(0.312081 -0.134567 0)
(0.546923 -0.109901 0)
(0.718558 -0.173453 0)
(0.812844 -0.204239 0)
(0.834246 -0.206766 0)
(0.858441 -0.192039 0)
(0.936433 -0.179765 0)
(0.0355662 -0.702695 0)
(0.0626267 -0.864031 0)
(0.0785791 -0.826615 0)
(0.111635 -0.824842 0)
(0.143898 -0.840991 0)
(0.170601 -0.862684 0)
(0.191663 -0.894458 0)
(0.201352 -0.949913 0)
(0.189415 -1.03252 0)
(0.161104 -1.11989 0)
(0.122717 -1.17857 0)
(0.0759788 -1.17278 0)
(0.00474275 -1.10226 0)
(-0.0881069 -0.9555 0)
(-0.0871321 -0.711035 0)
(0.0333417 -0.51079 0)
(0.189497 -0.374601 0)
(0.348891 -0.273011 0)
(0.49204 -0.236049 0)
(0.607836 -0.261262 0)
(0.71293 -0.291373 0)
(0.832237 -0.309497 0)
(0.963346 -0.320378 0)
(0.0317497 -0.7525 0)
(0.056888 -0.883099 0)
(0.071422 -0.851785 0)
(0.100233 -0.85399 0)
(0.126667 -0.866833 0)
(0.148279 -0.882405 0)
(0.165004 -0.903115 0)
(0.16857 -0.940996 0)
(0.150199 -1.0023 0)
(0.109764 -1.07124 0)
(0.0514028 -1.11589 0)
(-0.0171065 -1.10957 0)
(-0.0755205 -1.03748 0)
(-0.12502 -0.924994 0)
(-0.107631 -0.777224 0)
(-0.0435141 -0.646334 0)
(0.0831465 -0.506697 0)
(0.244239 -0.407977 0)
(0.416485 -0.399772 0)
(0.576609 -0.426634 0)
(0.719131 -0.444121 0)
(0.852207 -0.452064 0)
(0.984869 -0.459012 0)
(0.0262152 -0.796476 0)
(0.0502878 -0.897614 0)
(0.0652177 -0.874529 0)
(0.09049 -0.878661 0)
(0.113441 -0.888835 0)
(0.133198 -0.899964 0)
(0.149802 -0.912144 0)
(0.157602 -0.934234 0)
(0.147593 -0.973941 0)
(0.116084 -1.02175 0)
(0.0676835 -1.05559 0)
(0.01308 -1.05506 0)
(-0.0252322 -1.00753 0)
(-0.0322206 -0.926497 0)
(-0.00206394 -0.835201 0)
(0.0650029 -0.752324 0)
(0.170051 -0.660288 0)
(0.311464 -0.610413 0)
(0.456471 -0.583013 0)
(0.59376 -0.574076 0)
(0.723624 -0.574648 0)
(0.850744 -0.579502 0)
(0.98165 -0.590921 0)
(0.0209278 -0.834093 0)
(0.0437853 -0.912786 0)
(0.0598092 -0.89634 0)
(0.082358 -0.900875 0)
(0.103297 -0.909308 0)
(0.122332 -0.918102 0)
(0.140185 -0.92619 0)
(0.154689 -0.938286 0)
(0.158258 -0.961455 0)
(0.146283 -0.9932 0)
(0.122575 -1.01961 0)
(0.0955278 -1.02498 0)
(0.0775219 -1.00102 0)
(0.084839 -0.953093 0)
(0.120813 -0.891383 0)
(0.186286 -0.830761 0)
(0.265413 -0.775354 0)
(0.363813 -0.729214 0)
(0.475531 -0.70092 0)
(0.594147 -0.694629 0)
(0.716534 -0.700309 0)
(0.841059 -0.709542 0)
(0.971676 -0.726487 0)
(0.0169063 -0.865762 0)
(0.0382743 -0.928541 0)
(0.0549114 -0.916928 0)
(0.0754338 -0.921386 0)
(0.0948943 -0.928701 0)
(0.11315 -0.936608 0)
(0.131219 -0.943927 0)
(0.149097 -0.952161 0)
(0.162482 -0.966157 0)
(0.166732 -0.987351 0)
(0.162278 -1.00749 0)
(0.154005 -1.01418 0)
(0.150936 -1.00065 0)
(0.162517 -0.971106 0)
(0.192264 -0.933367 0)
(0.238177 -0.890114 0)
(0.303982 -0.849176 0)
(0.386716 -0.821161 0)
(0.485026 -0.810037 0)
(0.593042 -0.812469 0)
(0.707388 -0.822367 0)
(0.826282 -0.835939 0)
(0.954271 -0.859446 0)
(0.0140748 -0.892795 0)
(0.0338448 -0.944612 0)
(0.0504281 -0.936234 0)
(0.0693155 -0.94049 0)
(0.0874591 -0.946994 0)
(0.104753 -0.95441 0)
(0.121804 -0.962039 0)
(0.139342 -0.969851 0)
(0.155901 -0.980005 0)
(0.167693 -0.993968 0)
(0.172856 -1.00775 0)
(0.174399 -1.01361 0)
(0.17931 -1.00616 0)
(0.194139 -0.986729 0)
(0.222456 -0.962096 0)
(0.266248 -0.938869 0)
(0.325784 -0.91985 0)
(0.401245 -0.908897 0)
(0.488933 -0.908796 0)
(0.585905 -0.918561 0)
(0.691203 -0.935504 0)
(0.803506 -0.957028 0)
(0.927995 -0.989258 0)
(0.0120498 -0.916334 0)
(0.0302524 -0.960474 0)
(0.046332 -0.954266 0)
(0.0638196 -0.958305 0)
(0.0807599 -0.964166 0)
(0.0970696 -0.971028 0)
(0.112888 -0.978674 0)
(0.128756 -0.986725 0)
(0.144506 -0.995524 0)
(0.158266 -1.00541 0)
(0.168525 -1.01489 0)
(0.176957 -1.02013 0)
(0.188404 -1.0182 0)
(0.208024 -1.01018 0)
(0.238766 -0.999622 0)
(0.281646 -0.989708 0)
(0.337001 -0.98422 0)
(0.404193 -0.985781 0)
(0.482001 -0.996175 0)
(0.569405 -1.01536 0)
(0.666152 -1.04141 0)
(0.7713 -1.0728 0)
(0.890802 -1.11598 0)
(0.0105606 -0.937123 0)
(0.0272798 -0.975785 0)
(0.0425843 -0.971071 0)
(0.0588168 -0.974918 0)
(0.0746436 -0.9803 0)
(0.0900428 -0.98665 0)
(0.104992 -0.993913 0)
(0.119615 -1.00186 0)
(0.134064 -1.01025 0)
(0.148066 -1.01881 0)
(0.161238 -1.02696 0)
(0.174573 -1.03311 0)
(0.191018 -1.03575 0)
(0.213756 -1.03555 0)
(0.244891 -1.03503 0)
(0.285513 -1.03668 0)
(0.335741 -1.04238 0)
(0.395589 -1.05435 0)
(0.46497 -1.07461 0)
(0.543411 -1.10336 0)
(0.631 -1.13886 0)
(0.727424 -1.18086 0)
(0.838636 -1.23649 0)
(0.00942098 -0.955704 0)
(0.0247393 -0.990317 0)
(0.039113 -0.986702 0)
(0.0541691 -0.990393 0)
(0.0689312 -0.995465 0)
(0.0834412 -1.00149 0)
(0.0977097 -1.0084 0)
(0.111724 -1.01612 0)
(0.125599 -1.02447 0)
(0.139619 -1.03312 0)
(0.15409 -1.04168 0)
(0.169773 -1.04961 0)
(0.188408 -1.05651 0)
(0.212063 -1.06291 0)
(0.24216 -1.07017 0)
(0.279434 -1.07999 0)
(0.324306 -1.09438 0)
(0.377319 -1.11526 0)
(0.438581 -1.14442 0)
(0.507904 -1.18199 0)
(0.585572 -1.22654 0)
(0.67171 -1.27865 0)
(0.77145 -1.346 0)
(0.00849104 -0.972442 0)
(0.0224741 -1.00392 0)
(0.0358334 -1.00119 0)
(0.0497477 -1.00476 0)
(0.0634477 -1.00964 0)
(0.077012 -1.01553 0)
(0.0905054 -1.02233 0)
(0.103971 -1.03001 0)
(0.117496 -1.03852 0)
(0.131356 -1.04768 0)
(0.146043 -1.05731 0)
(0.162301 -1.06727 0)
(0.181213 -1.07763 0)
(0.204014 -1.08893 0)
(0.231744 -1.10219 0)
(0.265062 -1.11872 0)
(0.304582 -1.14036 0)
(0.350789 -1.1687 0)
(0.403768 -1.20545 0)
(0.463604 -1.25076 0)
(0.530693 -1.3035 0)
(0.605533 -1.36469 0)
(0.692401 -1.44238 0)
(0.00767714 -0.987566 0)
(0.0203843 -1.01651 0)
(0.0326795 -1.01452 0)
(0.0454584 -1.01801 0)
(0.0580703 -1.02278 0)
(0.0706181 -1.02861 0)
(0.0831679 -1.03546 0)
(0.095807 -1.04331 0)
(0.108668 -1.05213 0)
(0.121982 -1.06193 0)
(0.136168 -1.07273 0)
(0.151834 -1.08462 0)
(0.16972 -1.09788 0)
(0.19063 -1.11302 0)
(0.215337 -1.1309 0)
(0.244292 -1.15272 0)
(0.278147 -1.18004 0)
(0.317286 -1.2144 0)
(0.361701 -1.25734 0)
(0.411598 -1.30914 0)
(0.467397 -1.36887 0)
(0.529877 -1.43798 0)
(0.602376 -1.52494 0)
(0.00692334 -1.00122 0)
(0.0184061 -1.02803 0)
(0.0296076 -1.02672 0)
(0.041245 -1.03014 0)
(0.0527408 -1.03484 0)
(0.0642065 -1.04064 0)
(0.0756868 -1.04758 0)
(0.0872724 -1.05565 0)
(0.0991102 -1.06487 0)
(0.111424 -1.07534 0)
(0.124532 -1.0872 0)
(0.138855 -1.10069 0)
(0.154904 -1.11618 0)
(0.173225 -1.13424 0)
(0.194337 -1.15565 0)
(0.218539 -1.18151 0)
(0.246407 -1.2131 0)
(0.278165 -1.25204 0)
(0.31372 -1.29972 0)
(0.35326 -1.35656 0)
(0.397036 -1.4218 0)
(0.445853 -1.49711 0)
(0.501714 -1.59137 0)
(0.00620601 -1.01348 0)
(0.0165105 -1.03848 0)
(0.0265971 -1.03775 0)
(0.0370838 -1.04113 0)
(0.0474329 -1.04576 0)
(0.0577559 -1.05155 0)
(0.0680728 -1.05855 0)
(0.0784627 -1.06681 0)
(0.0890387 -1.0764 0)
(0.099984 -1.08744 0)
(0.111541 -1.10015 0)
(0.123994 -1.11485 0)
(0.13767 -1.13199 0)
(0.152908 -1.15214 0)
(0.170002 -1.17605 0)
(0.18914 -1.2047 0)
(0.210731 -1.23926 0)
(0.234856 -1.28132 0)
(0.261341 -1.33221 0)
(0.290203 -1.39248 0)
(0.321481 -1.46139 0)
(0.355945 -1.5406 0)
(0.394034 -1.63894 0)
(0.00551776 -1.02441 0)
(0.0146856 -1.04785 0)
(0.0236484 -1.04763 0)
(0.0329796 -1.05095 0)
(0.0421526 -1.05551 0)
(0.051279 -1.06127 0)
(0.0603548 -1.06829 0)
(0.0694312 -1.07665 0)
(0.0785847 -1.08646 0)
(0.087923 -1.09788 0)
(0.0976177 -1.11117 0)
(0.10785 -1.12667 0)
(0.118789 -1.14485 0)
(0.130612 -1.16631 0)
(0.14344 -1.19174 0)
(0.157322 -1.22206 0)
(0.172489 -1.25832 0)
(0.188893 -1.30207 0)
(0.206244 -1.35465 0)
(0.224374 -1.41667 0)
(0.243135 -1.48735 0)
(0.263486 -1.56804 0)
(0.284647 -1.66743 0)
(0.00485317 -1.03407 0)
(0.0129239 -1.05616 0)
(0.0207761 -1.05635 0)
(0.0289517 -1.0596 0)
(0.0369406 -1.06405 0)
(0.0448386 -1.06973 0)
(0.0526202 -1.0767 0)
(0.0603025 -1.08505 0)
(0.0679231 -1.09491 0)
(0.07551 -1.10648 0)
(0.08317 -1.12002 0)
(0.0909831 -1.13587 0)
(0.0989831 -1.15452 0)
(0.107223 -1.17652 0)
(0.11567 -1.20257 0)
(0.124279 -1.23349 0)
(0.133046 -1.27026 0)
(0.141757 -1.31435 0)
(0.15003 -1.36711 0)
(0.157559 -1.42926 0)
(0.164139 -1.49997 0)
(0.170816 -1.5802 0)
(0.176341 -1.6789 0)
(0.00421696 -1.04251 0)
(0.0112265 -1.06341 0)
(0.017998 -1.06393 0)
(0.0250348 -1.06708 0)
(0.0318516 -1.07139 0)
(0.0385178 -1.07691 0)
(0.0449927 -1.08373 0)
(0.051251 -1.09193 0)
(0.0572853 -1.10167 0)
(0.0630619 -1.11313 0)
(0.0686182 -1.12656 0)
(0.073941 -1.14233 0)
(0.0789517 -1.16087 0)
(0.0835906 -1.18273 0)
(0.0877025 -1.20854 0)
(0.0911203 -1.23904 0)
(0.0936351 -1.2752 0)
(0.0948612 -1.31831 0)
(0.0942527 -1.36979 0)
(0.0913932 -1.43033 0)
(0.086118 -1.49938 0)
(0.0790135 -1.5777 0)
(0.0686459 -1.67411 0)
(0.00361077 -1.04978 0)
(0.00959701 -1.06964 0)
(0.0153349 -1.07041 0)
(0.0212687 -1.07341 0)
(0.0269487 -1.07753 0)
(0.0324113 -1.08283 0)
(0.0375999 -1.08938 0)
(0.0424502 -1.0973 0)
(0.0469086 -1.10671 0)
(0.0509083 -1.1178 0)
(0.0543847 -1.13079 0)
(0.0572435 -1.14605 0)
(0.0593439 -1.16395 0)
(0.0605022 -1.18501 0)
(0.0604605 -1.20978 0)
(0.0589182 -1.23895 0)
(0.0554939 -1.27338 0)
(0.0496015 -1.31426 0)
(0.0406052 -1.36293 0)
(0.0277721 -1.42014 0)
(0.0107063 -1.48556 0)
(-0.0100679 -1.5599 0)
(-0.0373699 -1.65164 0)
(0.0030351 -1.05594 0)
(0.0080464 -1.07489 0)
(0.0128168 -1.07584 0)
(0.0177014 -1.07864 0)
(0.0222996 -1.08252 0)
(0.0266151 -1.08752 0)
(0.0305732 -1.09371 0)
(0.0340782 -1.10119 0)
(0.0370373 -1.11008 0)
(0.0393339 -1.12054 0)
(0.0408404 -1.1328 0)
(0.0413915 -1.14714 0)
(0.040762 -1.16392 0)
(0.0386856 -1.18357 0)
(0.0348062 -1.2066 0)
(0.0286939 -1.23358 0)
(0.0198145 -1.26526 0)
(0.00743923 -1.30268 0)
(-0.0092937 -1.34706 0)
(-0.0314024 -1.39926 0)
(-0.0595319 -1.45892 0)
(-0.0937395 -1.52648 0)
(-0.1381 -1.60998 0)
(0.0025129 -1.06105 0)
(0.00660992 -1.07924 0)
(0.0104777 -1.08028 0)
(0.01439 -1.08286 0)
(0.017979 -1.08645 0)
(0.0212284 -1.09107 0)
(0.0240415 -1.09679 0)
(0.0263031 -1.1037 0)
(0.0278823 -1.1119 0)
(0.0286177 -1.12153 0)
(0.0283328 -1.13276 0)
(0.0268076 -1.14585 0)
(0.0237355 -1.16106 0)
(0.0187821 -1.17879 0)
(0.0115106 -1.19944 0)
(0.00137555 -1.22348 0)
(-0.0122801 -1.25152 0)
(-0.0303245 -1.2844 0)
(-0.0538236 -1.3232 0)
(-0.0840525 -1.36871 0)
(-0.122005 -1.42053 0)
(-0.16842 -1.4786 0)
(-0.228192 -1.54965 0)
(0.00206109 -1.06519 0)
(0.00533191 -1.08273 0)
(0.00837436 -1.0838 0)
(0.0114056 -1.0861 0)
(0.0140708 -1.08936 0)
(0.0163548 -1.09355 0)
(0.0181332 -1.09873 0)
(0.0192794 -1.10497 0)
(0.0196314 -1.11233 0)
(0.0190033 -1.12094 0)
(0.0171577 -1.13091 0)
(0.013841 -1.14244 0)
(0.00870852 -1.15576 0)
(0.00133203 -1.17112 0)
(-0.00877987 -1.18888 0)
(-0.0222461 -1.20938 0)
(-0.039831 -1.23306 0)
(-0.0625172 -1.26051 0)
(-0.091532 -1.29261 0)
(-0.128358 -1.33001 0)
(-0.174334 -1.3722 0)
(-0.230797 -1.41844 0)
(-0.302936 -1.47361 0)
(0.0017278 -1.06846 0)
(0.00428434 -1.08542 0)
(0.00656388 -1.08643 0)
(0.00882774 -1.08845 0)
(0.0106701 -1.09133 0)
(0.0121069 -1.09504 0)
(0.0129777 -1.09962 0)
(0.0131566 -1.10509 0)
(0.0124597 -1.11151 0)
(0.0106799 -1.11895 0)
(0.00755937 -1.12749 0)
(0.0027945 -1.13725 0)
(-0.00398946 -1.14839 0)
(-0.0132523 -1.16109 0)
(-0.0255475 -1.17558 0)
(-0.0415521 -1.19207 0)
(-0.0620976 -1.21084 0)
(-0.0882348 -1.23224 0)
(-0.121287 -1.25683 0)
(-0.162876 -1.28508 0)
(-0.21461 -1.31633 0)
(-0.278229 -1.34911 0)
(-0.358707 -1.38616 0)
(0.00153359 -1.07115 0)
(0.0035169 -1.08747 0)
(0.00510402 -1.08838 0)
(0.00672647 -1.09009 0)
(0.00786171 -1.09256 0)
(0.00858726 -1.09575 0)
(0.00870173 -1.09966 0)
(0.00808077 -1.1043 0)
(0.00653115 -1.1097 0)
(0.00383534 -1.11587 0)
(-0.000273156 -1.12286 0)
(-0.00611785 -1.13071 0)
(-0.0140936 -1.1395 0)
(-0.0246793 -1.14932 0)
(-0.0384561 -1.16028 0)
(-0.056135 -1.17247 0)
(-0.0785837 -1.18599 0)
(-0.106874 -1.20094 0)
(-0.142348 -1.21757 0)
(-0.18668 -1.23609 0)
(-0.241631 -1.25569 0)
(-0.309105 -1.27426 0)
(-0.393453 -1.2924 0)
(0.00147896 -1.07371 0)
(0.00303884 -1.08922 0)
(0.00400559 -1.08995 0)
(0.00511853 -1.09135 0)
(0.00568508 -1.0934 0)
(0.00585321 -1.09604 0)
(0.00538328 -1.09926 0)
(0.00415403 -1.10303 0)
(0.00197107 -1.10736 0)
(-0.00138389 -1.11222 0)
(-0.00617597 -1.1176 0)
(-0.0127278 -1.12347 0)
(-0.0214328 -1.12984 0)
(-0.0327679 -1.13669 0)
(-0.0473127 -1.14401 0)
(-0.0657797 -1.15176 0)
(-0.0890409 -1.15989 0)
(-0.11815 -1.16827 0)
(-0.1544 -1.17681 0)
(-0.199418 -1.18545 0)
(-0.254995 -1.19329 0)
(-0.32299 -1.19775 0)
(-0.406861 -1.19751 0)
(0.00151938 -1.07612 0)
(0.00278649 -1.0905 0)
(0.00321433 -1.09104 0)
(0.0039366 -1.09216 0)
(0.00407715 -1.0938 0)
(0.00384625 -1.0959 0)
(0.00298267 -1.09843 0)
(0.00136417 -1.10135 0)
(-0.00120399 -1.10461 0)
(-0.00493522 -1.10818 0)
(-0.0100845 -1.11197 0)
(-0.0169593 -1.11591 0)
(-0.0259319 -1.11991 0)
(-0.0374533 -1.12387 0)
(-0.0520717 -1.12763 0)
(-0.0704639 -1.13105 0)
(-0.093467 -1.1339 0)
(-0.122087 -1.13586 0)
(-0.15752 -1.13657 0)
(-0.201262 -1.13564 0)
(-0.25503 -1.13212 0)
(-0.320484 -1.12326 0)
(-0.400101 -1.10619 0)
(0.00158344 -1.07757 0)
(0.00264928 -1.09047 0)
(0.00263235 -1.09081 0)
(0.00305999 -1.0917 0)
(0.00291123 -1.09296 0)
(0.0024336 -1.09455 0)
(0.00136908 -1.09641 0)
(-0.000413602 -1.09849 0)
(-0.00310249 -1.10073 0)
(-0.00690466 -1.10304 0)
(-0.012062 -1.10531 0)
(-0.0188607 -1.10742 0)
(-0.0276412 -1.1092 0)
(-0.0388101 -1.11045 0)
(-0.0528584 -1.11094 0)
(-0.0703903 -1.11036 0)
(-0.0921611 -1.10835 0)
(-0.119088 -1.10442 0)
(-0.152239 -1.09796 0)
(-0.192931 -1.0883 0)
(-0.242713 -1.07444 0)
(-0.30298 -1.05367 0)
(-0.375324 -1.02213 0)
(0.00161484 -1.07836 0)
(0.00253903 -1.08949 0)
(0.00220531 -1.08961 0)
(0.00243194 -1.0903 0)
(0.00213363 -1.0912 0)
(0.00156128 -1.09229 0)
(0.000476716 -1.0935 0)
(-0.00125054 -1.09477 0)
(-0.00379514 -1.09599 0)
(-0.00735317 -1.09707 0)
(-0.0121513 -1.09785 0)
(-0.0184541 -1.09817 0)
(-0.0265701 -1.09782 0)
(-0.03686 -1.09653 0)
(-0.0497489 -1.09396 0)
(-0.0657486 -1.08972 0)
(-0.0854939 -1.08332 0)
(-0.109762 -1.07412 0)
(-0.139455 -1.06133 0)
(-0.175669 -1.04408 0)
(-0.219703 -1.02131 0)
(-0.272682 -0.990552 0)
(-0.335492 -0.947452 0)
(0.00157988 -1.08167 0)
(0.00240703 -1.09082 0)
(0.00192126 -1.09077 0)
(0.00205399 -1.09131 0)
(0.00174823 -1.09193 0)
(0.00123039 -1.09262 0)
(0.000305105 -1.09328 0)
(-0.00114982 -1.09384 0)
(-0.00328618 -1.09417 0)
(-0.00627805 -1.09414 0)
(-0.010328 -1.09357 0)
(-0.0156733 -1.09225 0)
(-0.02259 -1.08992 0)
(-0.0313979 -1.08625 0)
(-0.0424666 -1.08085 0)
(-0.0562299 -1.07322 0)
(-0.0732093 -1.06277 0)
(-0.0940294 -1.04877 0)
(-0.119403 -1.0303 0)
(-0.15018 -1.00633 0)
(-0.187346 -0.975758 0)
(-0.231784 -0.936544 0)
(-0.283843 -0.884398 0)
(0.00143536 -1.08942 0)
(0.00216121 -1.09647 0)
(0.00165289 -1.09639 0)
(0.00174884 -1.09692 0)
(0.00154173 -1.09743 0)
(0.00119144 -1.09792 0)
(0.000556611 -1.0983 0)
(-0.00046161 -1.09845 0)
(-0.00198081 -1.09825 0)
(-0.00413672 -1.09752 0)
(-0.00708906 -1.09606 0)
(-0.0110271 -1.09362 0)
(-0.0161747 -1.08988 0)
(-0.0227959 -1.08446 0)
(-0.0312018 -1.07691 0)
(-0.0417601 -1.06665 0)
(-0.0549086 -1.05301 0)
(-0.0711557 -1.03514 0)
(-0.0910596 -1.01201 0)
(-0.115263 -0.982414 0)
(-0.144486 -0.945125 0)
(-0.179463 -0.898444 0)
(-0.220383 -0.838699 0)
(0.00111241 -1.0939 0)
(0.00161884 -1.09886 0)
(0.00113841 -1.09897 0)
(0.00118224 -1.09955 0)
(0.00106211 -1.10005 0)
(0.000873033 -1.10047 0)
(0.000525174 -1.10072 0)
(-4.40112e-05 -1.10067 0)