/*--------------------------------*- C++ -*----------------------------------*\
| =========                 |                                                 |
| \\      /  F ield         | OpenFOAM: The Open Source CFD Toolbox           |
|  \\    /   O peration     | Version:  2206                                  |
|   \\  /    A nd           | Website:  www.openfoam.com                      |
|    \\/     M anipulation  |                                                 |
\*---------------------------------------------------------------------------*/
FoamFile
{
    version     2.0;
    format      ascii;
    arch        "LSB;label=32;scalar=64";
    class       volVectorField;
    location    "0.775";
    object      U;
}
// * * * * * * * * * * * * * * * * * * * * * * * * * * * * * * * * * * * * * //

dimensions      [0 1 -1 0 0 0 0];

internalField   nonuniform List<vector> 
2268
(
(-0.0236651 0.0107748 0)
(-0.0800233 0.0137906 0)
(-0.133072 0.0120297 0)
(-0.179964 0.0108872 0)
(-0.22274 0.00841736 0)
(-0.243042 0.00186113 0)
(-0.229134 -0.00468225 0)
(-0.199638 -0.00659871 0)
(-0.173155 -0.00447407 0)
(-0.159425 -0.00130546 0)
(-0.157456 0.00131011 0)
(-0.163753 0.0032326 0)
(-0.1753 0.00443851 0)
(-0.189724 0.00494483 0)
(-0.206056 0.00259953 0)
(-0.21572 -0.00417097 0)
(-0.2114 -0.00588625 0)
(-0.220898 0.00873401 0)
(-0.284168 0.0209425 0)
(-0.339395 0.00932411 0)
(-0.293993 -0.0183614 0)
(-0.182112 -0.0386206 0)
(-0.0612464 -0.0361938 0)
(-0.0410292 0.040114 0)
(-0.108499 0.0406754 0)
(-0.159748 0.0339742 0)
(-0.205867 0.0304681 0)
(-0.243371 0.022239 0)
(-0.25404 0.00326285 0)
(-0.239564 -0.0159856 0)
(-0.206627 -0.0224106 0)
(-0.176145 -0.0152743 0)
(-0.159903 -0.00554363 0)
(-0.156163 0.00144697 0)
(-0.159408 0.00586393 0)
(-0.165341 0.00865593 0)
(-0.172762 0.0106919 0)
(-0.18376 0.0110289 0)
(-0.201508 0.00767252 0)
(-0.230277 0.00928907 0)
(-0.272326 0.0244252 0)
(-0.304283 0.0278995 0)
(-0.277418 -0.0038286 0)
(-0.198631 -0.0534297 0)
(-0.122541 -0.0895402 0)
(-0.0370885 -0.0892669 0)
(-0.0406164 0.0736368 0)
(-0.096338 0.0676496 0)
(-0.142904 0.0559971 0)
(-0.193037 0.0509524 0)
(-0.238246 0.0365617 0)
(-0.256192 0.0044278 0)
(-0.242814 -0.0292283 0)
(-0.213583 -0.0404778 0)
(-0.184559 -0.0277576 0)
(-0.166775 -0.0104534 0)
(-0.162191 0.000961235 0)
(-0.163604 0.00673581 0)
(-0.16461 0.00960204 0)
(-0.161783 0.011548 0)
(-0.155457 0.0137917 0)
(-0.15155 0.0171596 0)
(-0.156201 0.024512 0)
(-0.168012 0.0318821 0)
(-0.166531 0.0179748 0)
(-0.12418 -0.0296913 0)
(-0.0706559 -0.0784108 0)
(-0.0405142 -0.111141 0)
(-0.00156996 -0.111586 0)
(-0.0327244 0.102368 0)
(-0.0747512 0.0915976 0)
(-0.119167 0.0772885 0)
(-0.167893 0.0719863 0)
(-0.21053 0.0514837 0)
(-0.224845 0.00647296 0)
(-0.215118 -0.039501 0)
(-0.202052 -0.0542922 0)
(-0.188507 -0.038039 0)
(-0.176366 -0.015086 0)
(-0.172358 0.000648137 0)
(-0.174738 0.00760351 0)
(-0.176637 0.00888416 0)
(-0.172776 0.00771488 0)
(-0.160451 0.0072093 0)
(-0.139918 0.010631 0)
(-0.112468 0.0194057 0)
(-0.0792283 0.0249678 0)
(-0.0410415 0.00652293 0)
(0.00314153 -0.0382627 0)
(0.0319221 -0.0802656 0)
(0.015178 -0.112366 0)
(0.0245806 -0.10609 0)
(-0.0213793 0.123927 0)
(-0.0472371 0.112209 0)
(-0.0843551 0.0978101 0)
(-0.121077 0.0914286 0)
(-0.150378 0.0661081 0)
(-0.153591 0.0130182 0)
(-0.150877 -0.0404487 0)
(-0.165223 -0.055511 0)
(-0.180295 -0.0391364 0)
(-0.184578 -0.016299 0)
(-0.18497 0.0010328 0)
(-0.187632 0.00916952 0)
(-0.189598 0.00903887 0)
(-0.185754 0.00420067 0)
(-0.173203 -0.00133392 0)
(-0.15052 -0.00369069 0)
(-0.114421 -0.00159066 0)
(-0.0638063 -0.00140317 0)
(-0.00883117 -0.0198301 0)
(0.0324547 -0.0576245 0)
(0.0552962 -0.0832537 0)
(0.0259856 -0.107756 0)
(0.0349508 -0.0944624 0)
(-0.00728288 0.134492 0)
(-0.0117882 0.123058 0)
(-0.034511 0.108342 0)
(-0.0548775 0.0992055 0)
(-0.0663294 0.068464 0)
(-0.0588312 0.0121446 0)
(-0.0686673 -0.0309374 0)
(-0.116485 -0.0426354 0)
(-0.162861 -0.0279798 0)
(-0.188443 -0.0107251 0)
(-0.19791 0.00315737 0)
(-0.201902 0.0097133 0)
(-0.203235 0.00756908 0)
(-0.197865 -0.000641125 0)
(-0.183471 -0.0099656 0)
(-0.160451 -0.0171327 0)
(-0.127314 -0.0222537 0)
(-0.0816804 -0.0289261 0)
(-0.0299609 -0.0453867 0)
(0.00522853 -0.0734258 0)
(0.0340994 -0.085898 0)
(0.0120802 -0.103853 0)
(0.0347001 -0.0848698 0)
(0.00653335 0.134774 0)
(0.0201875 0.131835 0)
(0.0196369 0.120597 0)
(0.021821 0.11038 0)
(0.0321084 0.0773596 0)
(0.0432439 0.0239656 0)
(0.00377255 -0.0136882 0)
(-0.0815831 -0.0199805 0)
(-0.148468 -0.00829765 0)
(-0.189242 0.00049502 0)
(-0.209695 0.00871015 0)
(-0.217338 0.0129316 0)
(-0.218313 0.0083174 0)
(-0.210825 -0.00435353 0)
(-0.193288 -0.0184929 0)
(-0.167361 -0.0299997 0)
(-0.13383 -0.0395466 0)
(-0.0916916 -0.049072 0)
(-0.0462046 -0.0636594 0)
(-0.0134863 -0.0848389 0)
(0.017056 -0.0888295 0)
(0.0109472 -0.103948 0)
(0.0325902 -0.0705042 0)
(0.0154201 0.113999 0)
(0.0574862 0.115495 0)
(0.0931198 0.0985145 0)
(0.121859 0.0830549 0)
(0.135727 0.0567862 0)
(0.105817 0.0312461 0)
(0.0118714 0.0272107 0)
(-0.0891339 0.0283579 0)
(-0.14936 0.0255721 0)
(-0.186768 0.0203163 0)
(-0.21293 0.0169626 0)
(-0.228496 0.0128571 0)
(-0.233453 0.00377754 0)
(-0.224857 -0.0119495 0)
(-0.202302 -0.0303349 0)
(-0.172935 -0.0453248 0)
(-0.136832 -0.058402 0)
(-0.0924616 -0.0708136 0)
(-0.0448412 -0.0852236 0)
(-0.0058707 -0.100719 0)
(0.0255349 -0.0996343 0)
(0.0351263 -0.109549 0)
(0.0455961 -0.0517004 0)
(-0.0787904 0.0438077 0)
(-0.412275 0.0635125 0)
(-0.595204 0.0131718 0)
(-0.512438 -0.029582 0)
(-0.375904 -0.0461991 0)
(-0.132365 -0.0676091 0)
(0.0727645 -0.0167935 0)
(-0.00281821 0.0468772 0)
(-0.192214 0.0474021 0)
(-0.809564 0.170008 0)
(-1.53265 0.133537 0)
(-1.43815 0.00179878 0)
(-0.649399 -0.0832529 0)
(-0.136829 -0.0304418 0)
(0.0894704 -0.00445934 0)
(0.163802 -0.0849787 0)
(0.118749 -0.00506377 0)
(-0.0235981 0.0102048 0)
(0.188429 0.0409333 0)
(-0.197376 0.15763 0)
(-0.481202 0.16562 0)
(-0.456058 0.0305023 0)
(-0.366092 -0.0805829 0)
(-0.23236 -0.120983 0)
(-0.000706043 -0.165763 0)
(0.0727777 -0.0447407 0)
(0.00602011 0.117105 0)
(-0.793448 0.336437 0)
(-1.77295 0.416846 0)
(-1.98238 0.130357 0)
(-0.789517 -0.367803 0)
(-0.0191021 -0.484659 0)
(0.335785 -0.254668 0)
(0.632509 -0.0820092 0)
(0.887158 0.0993721 0)
(0.294305 0.0986334 0)
(-0.16932 -0.0258068 0)
(-0.102003 0.00451202 0)
(-0.203377 0.26867 0)
(-0.352443 0.207466 0)
(-0.274573 -0.0132386 0)
(-0.186155 -0.135446 0)
(-0.0895949 -0.190584 0)
(0.0628318 -0.23592 0)
(0.041039 -0.00267869 0)
(-0.233737 0.376098 0)
(-1.37561 0.710976 0)
(-2.13553 0.593915 0)
(-1.43136 -0.186336 0)
(-0.328187 -0.810461 0)
(-0.0234583 -0.690011 0)
(0.219212 -0.402998 0)
(0.485613 -0.229071 0)
(0.711338 -0.00815977 0)
(0.904442 0.357786 0)
(0.627163 0.255199 0)
(-0.133832 -0.0869717 0)
(-0.151139 0.354786 0)
(-0.181203 0.236125 0)
(-0.131499 -0.0364561 0)
(0.0011333 -0.172683 0)
(0.0723796 -0.217119 0)
(0.0679851 -0.242478 0)
(-0.0616835 0.118393 0)
(-0.605686 0.713825 0)
(-1.81048 1.05029 0)
(-2.02799 0.509041 0)
(-0.847294 -0.608745 0)
(-0.354574 -1.02657 0)
(-0.108325 -0.762711 0)
(0.124673 -0.451219 0)
(0.361365 -0.263669 0)
(0.457135 -0.179374 0)
(0.893183 0.185939 0)
(1.14441 0.45639 0)
(0.258017 0.193978 0)
(-0.0870654 0.401864 0)
(0.0363443 0.232373 0)
(0.0815781 -0.0585156 0)
(0.203893 -0.206251 0)
(0.219774 -0.196186 0)
(0.0343216 -0.176588 0)
(-0.299158 0.365828 0)
(-1.08508 1.10947 0)
(-2.15025 1.31785 0)
(-1.70114 0.274012 0)
(-0.607999 -0.929644 0)
(-0.407474 -1.14182 0)
(-0.194602 -0.854518 0)
(0.0244282 -0.538313 0)
(0.234214 -0.344677 0)
(0.375324 -0.22446 0)
(0.56832 0.0842171 0)
(0.832249 0.53196 0)
(0.13874 0.46303 0)
(-0.0405404 0.384406 0)
(0.171554 0.201809 0)
(0.294754 -0.100787 0)
(0.393757 -0.230004 0)
(0.322021 -0.129577 0)
(-0.0163605 -0.0513797 0)
(-0.525397 0.642533 0)
(-1.45128 1.4625 0)
(-2.23587 1.35683 0)
(-1.28906 -0.125894 0)
(-0.624549 -1.1518 0)
(-0.482255 -1.22035 0)
(-0.313983 -0.949329 0)
(-0.100084 -0.6487 0)
(0.0464432 -0.456335 0)
(0.151802 -0.31262 0)
(0.222799 0.0804265 0)
(0.154969 0.754105 0)
(-0.801912 0.5497 0)
(-0.0043484 0.33156 0)
(0.233834 0.145752 0)
(0.455716 -0.168359 0)
(0.469768 -0.235324 0)
(0.324977 -0.0208595 0)
(-0.0954705 0.130176 0)
(-0.736916 0.956187 0)
(-1.69983 1.77587 0)
(-2.10243 1.28607 0)
(-1.06027 -0.44215 0)
(-0.68688 -1.3072 0)
(-0.612895 -1.29056 0)
(-0.468624 -1.05714 0)
(-0.281462 -0.722704 0)
(-0.196841 -0.538523 0)
(-0.149407 -0.382318 0)
(-0.0767327 0.161816 0)
(-0.715041 0.984044 0)
(-0.857269 0.120095 0)
(0.0604147 0.240065 0)
(0.326859 0.0355324 0)
(0.545088 -0.242181 0)
(0.395339 -0.195446 0)
(0.205265 0.102646 0)
(-0.234669 0.369943 0)
(-1.00068 1.32855 0)
(-1.92463 2.06355 0)
(-1.78203 1.02513 0)
(-0.976368 -0.671532 0)
(-0.759067 -1.39631 0)
(-0.774479 -1.35264 0)
(-0.674732 -1.08447 0)
(-0.62058 -0.630149 0)
(-0.547636 -0.506918 0)
(-0.5297 -0.312514 0)
(-0.486636 0.390177 0)
(-0.967536 0.919598 0)
(-0.215673 -0.193316 0)
(0.0132463 0.0737101 0)
(0.0108072 0.0734144 0)
(-0.0178032 0.0874878 0)
(-0.0582962 0.105739 0)
(-0.107756 0.109244 0)
(-0.149977 0.0972324 0)
(-0.175259 0.0758369 0)
(-0.187822 0.0499903 0)
(-0.191755 0.0362682 0)
(-0.199199 0.0343353 0)
(-0.214457 0.0358203 0)
(-0.230604 0.0299767 0)
(-0.234944 0.00857753 0)
(-0.212881 -0.0262363 0)
(-0.18231 -0.0551669 0)
(-0.157764 -0.0740768 0)
(-0.125082 -0.0954074 0)
(-0.0806868 -0.113977 0)
(-0.0284524 -0.128654 0)
(0.0175784 -0.13408 0)
(0.0532529 -0.122813 0)
(0.0685209 -0.118309 0)
(0.0878405 -0.0782277 0)
(-0.500396 0.143019 0)
(-0.482671 0.158752 0)
(-0.53759 0.138065 0)
(-0.536331 0.125057 0)
(-0.518466 0.105307 0)
(-0.491281 0.0799949 0)
(-0.460506 0.0633682 0)
(-0.420475 0.0513234 0)
(-0.372684 0.0410836 0)
(-0.308969 0.0413124 0)
(-0.267534 0.041577 0)
(-0.258568 0.0213899 0)
(-0.259471 -0.0145907 0)
(-0.268987 -0.0450291 0)
(-0.264836 -0.0622325 0)
(-0.240127 -0.077697 0)
(-0.208138 -0.10329 0)
(-0.159557 -0.130107 0)
(-0.087351 -0.146164 0)
(-0.0164223 -0.139982 0)
(0.0242378 -0.123153 0)
(0.0264138 -0.11237 0)
(0.0543025 -0.101035 0)
(-0.464578 0.917196 0)
(-0.998239 0.358589 0)
(-1.54075 0.225705 0)
(-1.74578 0.146195 0)
(-1.7158 0.0714531 0)
(-1.64668 0.0311367 0)
(-1.57214 -0.00638026 0)
(-1.47062 -0.0666025 0)
(-1.33677 -0.11328 0)
(-1.1576 -0.0767543 0)
(-1.01645 -0.0133014 0)
(-1.01033 0.0251866 0)
(-1.08604 0.0275131 0)
(-1.12963 -0.00847757 0)
(-1.09154 -0.0589577 0)
(-0.975922 -0.110103 0)
(-0.804522 -0.166342 0)
(-0.588686 -0.217654 0)
(-0.374259 -0.257467 0)
(-0.190409 -0.249198 0)
(-0.055073 -0.202494 0)
(0.0437219 -0.177217 0)
(0.12551 -0.169059 0)
(-0.325734 1.54799 0)
(-0.698081 0.991789 0)
(-1.23958 0.701885 0)
(-1.64198 0.360633 0)
(-2.02442 0.0957362 0)
(-2.22307 -0.0253719 0)
(-2.20297 -0.100555 0)
(-2.11726 -0.236711 0)
(-2.07497 -0.281842 0)
(-2.05021 -0.179172 0)
(-2.05957 -0.026853 0)
(-2.13848 0.0641141 0)
(-2.19737 0.0272249 0)
(-2.11554 -0.120659 0)
(-1.89468 -0.261292 0)
(-1.58373 -0.417921 0)
(-1.25405 -0.548612 0)
(-0.919942 -0.651277 0)
(-0.745183 -0.743136 0)
(-0.488222 -0.668887 0)
(0.523388 -0.421884 0)
(0.361469 -0.317518 0)
(0.338078 -0.314125 0)
(-0.208555 1.9277 0)
(-0.416767 1.44512 0)
(-0.820141 1.16274 0)
(-1.07463 0.796839 0)
(-1.29962 0.455685 0)
(-1.40073 0.149475 0)
(-1.42276 -0.0697499 0)
(-1.44903 -0.177963 0)
(-1.54541 -0.220999 0)
(-1.84866 -0.0857645 0)
(-2.3109 0.099736 0)
(-2.57107 0.165151 0)
(-2.597 -0.0238624 0)
(-2.36554 -0.350103 0)
(-1.95737 -0.6518 0)
(-1.64377 -0.814332 0)
(-1.38972 -0.808763 0)
(-1.1833 -0.799268 0)
(-1.09683 -0.845945 0)
(-1.14109 -0.770748 0)
(-1.2889 -0.326078 0)
(-1.29809 -0.290901 0)
(-1.36629 -0.195578 0)
(-0.119491 2.12062 0)
(-0.176544 1.68272 0)
(-0.416876 1.4001 0)
(-0.474532 1.00492 0)
(-0.540236 0.600285 0)
(-0.576429 0.25883 0)
(-0.639723 0.0270963 0)
(-0.823297 -0.030948 0)
(-1.10684 0.0988098 0)
(-1.28893 0.331185 0)
(-1.39205 0.468203 0)
(-1.55219 0.326796 0)
(-1.78725 -0.0659447 0)
(-1.8078 -0.371981 0)
(-1.75248 -0.770134 0)
(-1.65685 -1.02843 0)
(-1.51788 -1.03114 0)
(-1.35128 -0.967226 0)
(-1.24494 -0.871117 0)
(-1.23472 -0.686098 0)
(-1.30597 -0.195377 0)
(-1.26864 -0.0790517 0)
(-1.3538 -0.653588 0)
(-0.0342062 2.20402 0)
(0.0311519 1.77345 0)
(-0.145401 1.43178 0)
(-0.035037 1.00852 0)
(-0.0349369 0.588109 0)
(-0.0493832 0.298095 0)
(-0.131005 0.164132 0)
(-0.276993 0.191051 0)
(-0.508009 0.269892 0)
(-0.760551 0.374071 0)
(-0.879113 0.517341 0)
(-0.961905 0.468117 0)
(-1.15176 0.118796 0)
(-1.35647 -0.261111 0)
(-1.5097 -0.665853 0)
(-1.63143 -1.09619 0)
(-1.61955 -1.18404 0)
(-1.5116 -1.12961 0)
(-1.37527 -0.960333 0)
(-1.25893 -0.716002 0)
(-1.11395 -0.472144 0)
(-0.746743 -0.34433 0)
(-0.753675 -0.544198 0)
(0.0682722 2.10649 0)
(0.225215 1.88102 0)
(0.065667 1.38341 0)
(0.205263 0.918985 0)
(0.237882 0.548527 0)
(0.215607 0.335279 0)
(0.136823 0.262324 0)
(0.0184886 0.324722 0)
(-0.0835639 0.474749 0)
(-0.240776 0.556079 0)
(-0.383712 0.59289 0)
(-0.464444 0.561313 0)
(-0.578467 0.341531 0)
(-0.775807 -0.00142872 0)
(-1.07585 -0.413356 0)
(-1.3882 -0.859375 0)
(-1.56771 -1.16479 0)
(-1.57627 -1.23738 0)
(-1.47464 -1.12638 0)
(-1.29175 -0.895447 0)
(-1.08318 -0.653325 0)
(-0.863012 -0.508177 0)
(-0.680193 -0.553576 0)
(0.166951 1.82016 0)
(0.398235 1.92442 0)
(0.315901 1.38368 0)
(0.379075 0.87271 0)
(0.392896 0.538723 0)
(0.349632 0.392417 0)
(0.271161 0.366835 0)
(0.166836 0.420742 0)
(0.113411 0.559402 0)
(0.0838509 0.68395 0)
(0.018085 0.711064 0)
(-0.0513936 0.65968 0)
(-0.142585 0.50744 0)
(-0.297689 0.254481 0)
(-0.580768 -0.101035 0)
(-1.00114 -0.536333 0)
(-1.36778 -0.970864 0)
(-1.56266 -1.23264 0)
(-1.56944 -1.25058 0)
(-1.43605 -1.11636 0)
(-1.19977 -0.899842 0)
(-0.957096 -0.721697 0)
(-0.789008 -0.654044 0)
(0.194158 1.43816 0)
(0.473271 1.80816 0)
(0.511826 1.38197 0)
(0.53541 0.889164 0)
(0.501645 0.577747 0)
(0.421679 0.466269 0)
(0.334488 0.463021 0)
(0.240492 0.50017 0)
(0.187192 0.580597 0)
(0.20029 0.687663 0)
(0.216566 0.746459 0)
(0.2017 0.721333 0)
(0.146151 0.612325 0)
(0.0385737 0.440395 0)
(-0.139488 0.231363 0)
(-0.482027 -0.0838924 0)
(-0.960276 -0.57615 0)
(-1.37653 -1.03643 0)
(-1.60672 -1.25135 0)
(-1.63747 -1.23253 0)
(-1.4981 -1.09282 0)
(-1.29618 -0.919469 0)
(-1.16611 -0.793435 0)
(0.117004 1.12469 0)
(0.398916 1.58 0)
(0.541319 1.3033 0)
(0.587837 0.906418 0)
(0.535189 0.648298 0)
(0.437585 0.557488 0)
(0.350115 0.552364 0)
(0.271706 0.570005 0)
(0.217794 0.598661 0)
(0.21837 0.651714 0)
(0.256039 0.708167 0)
(0.285542 0.718917 0)
(0.278174 0.661675 0)
(0.221478 0.54832 0)
(0.114343 0.419874 0)
(-0.0745302 0.263492 0)
(-0.439767 -0.0790139 0)
(-0.911832 -0.593892 0)
(-1.29728 -1.02658 0)
(-1.58517 -1.23063 0)
(-1.86314 -1.20961 0)
(-2.0529 -0.989712 0)
(-2.19313 -0.789344 0)
(0.0107431 0.961194 0)
(0.244669 1.32863 0)
(0.437522 1.1657 0)
(0.516283 0.899956 0)
(0.479661 0.719449 0)
(0.40172 0.645196 0)
(0.334369 0.627757 0)
(0.279205 0.628501 0)
(0.23699 0.627733 0)
(0.221678 0.636545 0)
(0.242122 0.664971 0)
(0.278434 0.686137 0)
(0.300642 0.668725 0)
(0.285995 0.605909 0)
(0.226505 0.526907 0)
(0.129645 0.449928 0)
(-0.0670897 0.266756 0)
(-0.420862 -0.128689 0)
(-0.795825 -0.551454 0)
(-1.14625 -0.80034 0)
(-1.55529 -0.863091 0)
(-1.90914 -0.715887 0)
(-2.05846 -0.63574 0)
(-0.0376793 0.903985 0)
(0.124175 1.10974 0)
(0.305438 1.0221 0)
(0.389941 0.874273 0)
(0.381699 0.763872 0)
(0.342562 0.703273 0)
(0.305827 0.676566 0)
(0.276293 0.666878 0)
(0.252329 0.654787 0)
(0.235646 0.642504 0)
(0.237706 0.644402 0)
(0.25964 0.655219 0)
(0.285259 0.654088 0)
(0.291887 0.627986 0)
(0.262439 0.586353 0)
(0.203585 0.548707 0)
(0.105051 0.468427 0)
(-0.152006 0.194257 0)
(-0.497767 -0.179925 0)
(-0.826038 -0.372915 0)
(-1.23271 -0.408102 0)
(-1.60849 -0.431547 0)
(-1.87672 -0.503538 0)
(-0.0287463 0.885303 0)
(0.0746541 0.956028 0)
(0.20663 0.905958 0)
(0.278006 0.836315 0)
(0.293406 0.773243 0)
(0.288057 0.725181 0)
(0.277963 0.696759 0)
(0.269802 0.682723 0)
(0.263165 0.668622 0)
(0.255302 0.651385 0)
(0.252032 0.639636 0)
(0.260451 0.637134 0)
(0.276774 0.637097 0)
(0.286737 0.631371 0)
(0.273916 0.618336 0)
(0.233633 0.60616 0)
(0.1773 0.592503 0)
(0.0284224 0.471519 0)
(-0.342835 0.113091 0)
(-0.628068 -0.108539 0)
(-0.912343 -0.10611 0)
(-1.29916 -0.0115266 0)
(-1.61686 -0.101601 0)
(-0.00525822 0.865088 0)
(0.0639159 0.859807 0)
(0.148917 0.822785 0)
(0.205761 0.794227 0)
(0.233891 0.75807 0)
(0.248177 0.72156 0)
(0.255245 0.696245 0)
(0.261506 0.681523 0)
(0.267634 0.668593 0)
(0.270766 0.653174 0)
(0.271958 0.638427 0)
(0.276015 0.629178 0)
(0.284314 0.626915 0)
(0.291209 0.630381 0)
(0.287337 0.636508 0)
(0.264749 0.643423 0)
(0.229699 0.664921 0)
(0.181039 0.67208 0)
(-0.0752147 0.45898 0)
(-0.375947 0.172304 0)
(-0.544303 0.151112 0)
(-0.77292 0.288088 0)
(-1.09925 0.120266 0)
(0.0089704 0.834266 0)
(0.0611198 0.794796 0)
(0.11887 0.763359 0)
(0.165543 0.75377 0)
(0.197589 0.73215 0)
(0.220415 0.705042 0)
(0.23677 0.683941 0)
(0.251443 0.669991 0)
(0.265537 0.658605 0)
(0.277325 0.646313 0)
(0.285853 0.633609 0)
(0.292571 0.623957 0)
(0.299324 0.621314 0)
(0.305628 0.628354 0)
(0.308769 0.644306 0)
(0.304463 0.663924 0)
(0.290033 0.696313 0)
(0.28818 0.764676 0)
(0.204264 0.734342 0)
(-0.115631 0.397796 0)
(-0.312222 0.253267 0)
(-0.276001 0.452507 0)
(-0.351587 0.411964 0)
(0.0136382 0.799193 0)
(0.0573434 0.744618 0)
(0.102178 0.716958 0)
(0.142372 0.716512 0)
(0.174211 0.703276 0)
(0.199982 0.682984 0)
(0.220914 0.66551 0)
(0.240056 0.652656 0)
(0.258569 0.642368 0)
(0.275753 0.632509 0)
(0.290443 0.622895 0)
(0.302412 0.615623 0)
(0.312743 0.614188 0)
(0.323017 0.622026 0)
(0.334287 0.640189 0)
(0.346311 0.664924 0)
(0.356197 0.69696 0)
(0.375629 0.768191 0)
(0.417114 0.862446 0)
(0.272552 0.675576 0)
(-0.0316156 0.380846 0)
(-0.084266 0.326362 0)
(0.0485024 0.423475 0)
(0.0145095 0.76503 0)
(0.0529434 0.702608 0)
(0.0909859 0.67736 0)
(0.126894 0.682182 0)
(0.157436 0.674224 0)
(0.183959 0.658622 0)
(0.207037 0.643988 0)
(0.228449 0.632248 0)
(0.249229 0.622663 0)
(0.269337 0.614234 0)
(0.288095 0.606895 0)
(0.305087 0.601878 0)
(0.320984 0.601446 0)
(0.337772 0.608188 0)
(0.357986 0.623549 0)
(0.383551 0.645992 0)
(0.415125 0.673195 0)
(0.455287 0.71921 0)
(0.543657 0.832159 0)
(0.612274 0.846918 0)
(0.424404 0.605281 0)
(0.258405 0.375877 0)
(0.257114 0.234466 0)
(0.0147073 0.732619 0)
(0.0490219 0.665993 0)
(0.0826168 0.642114 0)
(0.115373 0.650293 0)
(0.144539 0.645776 0)
(0.171002 0.633401 0)
(0.19503 0.620984 0)
(0.217614 0.610329 0)
(0.239572 0.60125 0)
(0.261218 0.593466 0)
(0.28245 0.587126 0)
(0.303258 0.58296 0)
(0.324336 0.582177 0)
(0.347496 0.586209 0)
(0.375409 0.596033 0)
(0.410804 0.611077 0)
(0.455818 0.629239 0)
(0.513195 0.649585 0)
(0.604279 0.70855 0)
(0.760657 0.794423 0)
(0.834206 0.711025 0)
(0.750145 0.514909 0)
(0.707748 0.312768 0)
(0.0147628 0.701735 0)
(0.0457783 0.63326 0)
(0.0761754 0.610165 0)
(0.106409 0.620439 0)
(0.134275 0.618161 0)
(0.160314 0.608011 0)
(0.184671 0.597279 0)
(0.207884 0.587589 0)
(0.23055 0.5789 0)
(0.253122 0.571236 0)
(0.275899 0.564838 0)
(0.299274 0.560123 0)
(0.324062 0.557605 0)
(0.351779 0.557819 0)
(0.384633 0.561063 0)
(0.425251 0.566829 0)
(0.475767 0.573189 0)
(0.539327 0.575497 0)
(0.622226 0.580839 0)
(0.76102 0.614189 0)
(0.939564 0.609559 0)
(1.04715 0.492915 0)
(1.1064 0.265782 0)
(0.0145193 0.672348 0)
(0.0429973 0.60334 0)
(0.0710143 0.580796 0)
(0.0991767 0.592315 0)
(0.125808 0.591464 0)
(0.151217 0.582813 0)
(0.175523 0.573275 0)
(0.199025 0.564317 0)
(0.222147 0.555871 0)
(0.245352 0.547996 0)
(0.269113 0.540898 0)
(0.294011 0.534777 0)
(0.320883 0.529745 0)
(0.350933 0.525789 0)
(0.385788 0.522661 0)
(0.427416 0.519644 0)
(0.477704 0.514756 0)
(0.538295 0.503947 0)
(0.6106 0.482831 0)
(0.707337 0.456007 0)
(0.847837 0.420654 0)
(0.997204 0.338779 0)
(1.11003 0.169078 0)
(0.0139797 0.644498 0)
(0.0404978 0.575523 0)
(0.0666089 0.553482 0)
(0.0930481 0.5657 0)
(0.118499 0.565732 0)
(0.143151 0.558049 0)
(0.167124 0.549285 0)
(0.190608 0.540779 0)
(0.213917 0.532388 0)
(0.237463 0.524098 0)
(0.261724 0.516015 0)
(0.287284 0.508184 0)
(0.314876 0.500501 0)
(0.34541 0.492675 0)
(0.379999 0.484153 0)
(0.419877 0.474009 0)
(0.466418 0.460477 0)
(0.520112 0.44031 0)
(0.580899 0.409056 0)
(0.648914 0.361511 0)
(0.730291 0.295513 0)
(0.826338 0.206096 0)
(0.900962 0.0714884 0)
(0.0132877 0.618178 0)
(0.0381958 0.549438 0)
(0.062632 0.527882 0)
(0.0875964 0.540438 0)
(0.111905 0.54099 0)
(0.135711 0.533906 0)
(0.159126 0.525602 0)
(0.18229 0.5173 0)
(0.205454 0.508792 0)
(0.228962 0.499972 0)
(0.253219 0.490849 0)
(0.278711 0.481364 0)
(0.306013 0.471301 0)
(0.335773 0.460253 0)
(0.368701 0.447568 0)
(0.405496 0.432252 0)
(0.446871 0.412856 0)
(0.492935 0.386963 0)
(0.542921 0.351621 0)
(0.59492 0.302935 0)
(0.645827 0.236437 0)
(0.696584 0.152321 0)
(0.731582 0.0463459 0)
(0.0125682 0.593335 0)
(0.0360458 0.524912 0)
(0.0589193 0.5038 0)
(0.0825628 0.516431 0)
(0.105744 0.51726 0)
(0.128629 0.510535 0)
(0.151306 0.502478 0)
(0.173883 0.494211 0)
(0.196566 0.485472 0)
(0.219635 0.476089 0)
(0.243406 0.466003 0)
(0.268242 0.455088 0)
(0.294556 0.443079 0)
(0.322782 0.42954 0)
(0.353332 0.413836 0)
(0.386554 0.39505 0)
(0.42265 0.371984 0)
(0.461498 0.342976 0)
(0.502123 0.306023 0)
(0.542901 0.259124 0)
(0.579983 0.199415 0)
(0.610503 0.126663 0)
(0.626172 0.0393446 0)
(0.011882 0.569888 0)
(0.0340136 0.501855 0)
(0.0553988 0.481124 0)
(0.0777991 0.493632 0)
(0.0998451 0.494567 0)
(0.121741 0.488052 0)
(0.143537 0.480116 0)
(0.165313 0.471793 0)
(0.187236 0.462781 0)
(0.209527 0.452871 0)
(0.232421 0.441963 0)
(0.25617 0.429897 0)
(0.281049 0.4164 0)
(0.30732 0.401052 0)
(0.335183 0.383282 0)
(0.364744 0.362321 0)
(0.39591 0.337202 0)
(0.428321 0.306771 0)
(0.461038 0.269677 0)
(0.492629 0.224765 0)
(0.520406 0.17067 0)
(0.541554 0.107529 0)
(0.550368 0.0348108 0)
(0.0112512 0.547757 0)
(0.0320742 0.480207 0)
(0.0520389 0.459791 0)
(0.0732255 0.472027 0)
(0.0941163 0.472947 0)
(0.114961 0.466553 0)
(0.135764 0.45867 0)
(0.156577 0.45026 0)
(0.177538 0.440991 0)
(0.198807 0.430636 0)
(0.220551 0.419074 0)
(0.242934 0.406141 0)
(0.26612 0.391578 0)
(0.29024 0.375011 0)
(0.315347 0.355953 0)
(0.341382 0.333795 0)
(0.368106 0.307804 0)
(0.395024 0.277173 0)
(0.421277 0.241049 0)
(0.445618 0.198763 0)
(0.466142 0.149765 0)
(0.481033 0.0946605 0)
(0.486144 0.0334265 0)
(0.0106836 0.526873 0)
(0.0302166 0.459926 0)
(0.0488245 0.439765 0)
(0.0688064 0.451623 0)
(0.0885185 0.452447 0)
(0.10826 0.446122 0)
(0.127983 0.438264 0)
(0.147718 0.429769 0)
(0.167574 0.420289 0)
(0.187662 0.409592 0)
(0.208087 0.397553 0)
(0.228947 0.384018 0)
(0.250323 0.368759 0)
(0.27225 0.351461 0)
(0.29468 0.331731 0)
(0.317464 0.309106 0)
(0.340296 0.283061 0)
(0.36266 0.253054 0)
(0.383787 0.218583 0)
(0.402652 0.179316 0)
(0.417804 0.135097 0)
(0.428069 0.0866611 0)
(0.430562 0.0341208 0)
(0.0101822 0.507157 0)
(0.0284474 0.440985 0)
(0.0457459 0.421013 0)
(0.0645327 0.432431 0)
(0.0830464 0.433105 0)
(0.101644 0.426821 0)
(0.120229 0.418985 0)
(0.138807 0.410428 0)
(0.157465 0.400799 0)
(0.176273 0.389869 0)
(0.195287 0.377519 0)
(0.214555 0.363617 0)
(0.234095 0.347971 0)
(0.253879 0.33033 0)
(0.273802 0.310389 0)
(0.293666 0.28781 0)
(0.313151 0.262232 0)
(0.331777 0.233315 0)
(0.348879 0.200788 0)
(0.363635 0.164534 0)
(0.374933 0.124593 0)
(0.381972 0.0816702 0)
(0.382721 0.0359136 0)
(0.00975061 0.48851 0)
(0.0267907 0.423372 0)
(0.0427859 0.403491 0)
(0.0604044 0.414448 0)
(0.0777098 0.414943 0)
(0.0951435 0.408689 0)
(0.112555 0.400888 0)
(0.129929 0.392304 0)
(0.147335 0.382591 0)
(0.164809 0.371532 0)
(0.182374 0.359021 0)
(0.200036 0.34495 0)
(0.217775 0.329164 0)
(0.23552 0.311473 0)
(0.25314 0.291651 0)
(0.270422 0.269459 0)
(0.287056 0.244663 0)
(0.302616 0.217065 0)
(0.316549 0.186549 0)
(0.328204 0.153131 0)
(0.336735 0.116953 0)
(0.341587 0.0786451 0)
(0.341267 0.0383514 0)
(0.00940261 0.470809 0)
(0.0252833 0.407113 0)
(0.0399083 0.387161 0)
(0.0564158 0.397666 0)
(0.072516 0.397963 0)
(0.0887881 0.391741 0)
(0.105018 0.384 0)
(0.121169 0.375431 0)
(0.137303 0.3657 0)
(0.153429 0.354608 0)
(0.169544 0.342064 0)
(0.185631 0.327984 0)
(0.201639 0.31225 0)
(0.21748 0.294722 0)
(0.233013 0.275243 0)
(0.248028 0.253653 0)
(0.262243 0.229811 0)
(0.275293 0.203621 0)
(0.286725 0.175067 0)
(0.296031 0.144245 0)
(0.302572 0.111346 0)
(0.305968 0.0769168 0)
(0.305096 0.0410782 0)
(0.00917023 0.4539 0)
(0.0239685 0.392276 0)
(0.0370705 0.372012 0)
(0.0525523 0.38206 0)
(0.0674602 0.38215 0)
(0.082596 0.375979 0)
(0.0976522 0.368326 0)
(0.112585 0.359816 0)
(0.127457 0.350132 0)
(0.142255 0.339089 0)
(0.156958 0.326617 0)
(0.171532 0.312652 0)
(0.185914 0.297111 0)
(0.200007 0.279896 0)
(0.213672 0.260904 0)
(0.226717 0.240038 0)
(0.238895 0.217224 0)
(0.2499 0.192436 0)
(0.259372 0.165722 0)
(0.266918 0.137222 0)
(0.272067 0.107147 0)
(0.274566 0.075961 0)
(0.273555 0.0437578 0)
(0.00908973 0.437599 0)
(0.0228737 0.37894 0)
(0.0342735 0.358074 0)
(0.0488016 0.367591 0)
(0.0625253 0.367469 0)
(0.0765617 0.361384 0)
(0.09046 0.35385 0)
(0.104196 0.345439 0)
(0.117837 0.335856 0)
(0.131351 0.32493 0)
(0.144708 0.31261 0)
(0.157865 0.298854 0)
(0.17075 0.283605 0)
(0.183268 0.266799 0)
(0.19529 0.248377 0)
(0.206648 0.228287 0)
(0.217133 0.206505 0)
(0.226496 0.18305 0)
(0.234458 0.158006 0)
(0.240728 0.131534 0)
(0.244968 0.103847 0)
(0.24703 0.0753308 0)
(0.246273 0.0460552 0)
(0.00916352 0.421722 0)
(0.0219797 0.367118 0)
(0.0315823 0.345414 0)
(0.0451553 0.354238 0)
(0.0576816 0.353891 0)
(0.0706493 0.347926 0)
(0.0833978 0.340542 0)
(0.0959613 0.332263 0)
(0.108411 0.322819 0)
(0.120697 0.312058 0)
(0.132786 0.299947 0)
(0.144629 0.286461 0)
(0.156154 0.271566 0)
(0.16727 0.255224 0)
(0.177862 0.237407 0)
(0.187787 0.218096 0)
(0.196873 0.197302 0)
(0.204925 0.17507 0)
(0.211732 0.1515 0)
(0.217088 0.126754 0)
(0.220768 0.101035 0)
(0.222699 0.0746627 0)
(0.222416 0.0476769 0)
(0.00933934 0.406148 0)
(0.0212176 0.356729 0)
(0.0290604 0.334119 0)
(0.0415895 0.342024 0)
(0.0528815 0.341416 0)
(0.0647873 0.335598 0)
(0.0763734 0.328383 0)
(0.087777 0.320258 0)
(0.0990609 0.310976 0)
(0.110159 0.300408 0)
(0.121041 0.288538 0)
(0.131654 0.275356 0)
(0.141925 0.260845 0)
(0.151773 0.244988 0)
(0.161094 0.227775 0)
(0.169768 0.209214 0)
(0.177658 0.189333 0)
(0.184611 0.168193 0)
(0.190471 0.145896 0)
(0.195096 0.122592 0)
(0.198346 0.0984636 0)
(0.200201 0.0737744 0)
(0.200327 0.048538 0)
(0.0095374 0.390844 0)
(0.0205068 0.347632 0)
(0.0266979 0.324265 0)
(0.0380532 0.331018 0)
(0.0480555 0.330084 0)
(0.0588723 0.32442 0)
(0.0692531 0.317386 0)
(0.079483 0.309424 0)
(0.089594 0.300311 0)
(0.0995079 0.289944 0)
(0.109199 0.278329 0)
(0.11861 0.265465 0)
(0.12767 0.251346 0)
(0.136303 0.235972 0)
(0.144418 0.219345 0)
(0.151913 0.201488 0)
(0.158673 0.182441 0)
(0.164579 0.162271 0)
(0.169515 0.141072 0)
(0.17338 0.118976 0)
(0.176089 0.0961381 0)
(0.177649 0.072776 0)
(0.177809 0.0488876 0)
(0.0096906 0.375847 0)
(0.0197751 0.339683 0)
(0.0244321 0.315909 0)
(0.0344917 0.3213 0)
(0.0431297 0.319957 0)
(0.0527972 0.314447 0)
(0.0619007 0.307595 0)
(0.0709155 0.299795 0)
(0.079809 0.290846 0)
(0.0884977 0.280684 0)
(0.0969628 0.269327 0)
(0.10514 0.256784 0)
(0.11296 0.243058 0)
(0.120351 0.228158 0)
(0.127232 0.212098 0)
(0.133512 0.194907 0)
(0.139093 0.176632 0)
(0.143878 0.157341 0)
(0.147776 0.137113 0)
(0.150712 0.116058 0)
(0.152638 0.0943079 0)
(0.153565 0.0720372 0)
(0.153307 0.0492404 0)
(0.00974935 0.361274 0)
(0.0189337 0.332721 0)
(0.0222055 0.309092 0)
(0.0308736 0.312952 0)
(0.0380595 0.311126 0)
(0.0465003 0.305759 0)
(0.0542421 0.299075 0)
(0.0619908 0.29143 0)
(0.0696019 0.28264 0)
(0.0770038 0.272683 0)
(0.0841823 0.26159 0)
(0.0910642 0.249372 0)
(0.097584 0.236042 0)
(0.103675 0.221615 0)
(0.109261 0.20611 0)
(0.114259 0.189561 0)
(0.118586 0.172018 0)
(0.122159 0.153542 0)
(0.124912 0.1342 0)
(0.126786 0.114079 0)
(0.127765 0.0932853 0)
(0.127863 0.0719507 0)
(0.126961 0.0500732 0)
(0.00964489 0.347302 0)
(0.017853 0.326583 0)
(0.0199713 0.303807 0)
(0.0271867 0.306035 0)
(0.0328513 0.30368 0)
(0.0400036 0.298427 0)
(0.0463203 0.291887 0)
(0.0527729 0.284384 0)
(0.0590515 0.275746 0)
(0.0651272 0.265999 0)
(0.070982 0.255173 0)
(0.0765355 0.243286 0)
(0.0817308 0.230354 0)
(0.0865045 0.216398 0)
(0.090785 0.201438 0)
(0.0945007 0.185508 0)
(0.0975826 0.168658 0)
(0.0999687 0.150938 0)
(0.101614 0.132404 0)
(0.102478 0.113119 0)
(0.102576 0.0931684 0)
(0.101927 0.0726189 0)
(0.100494 0.0514888 0)
(0.00932406 0.334231 0)
(0.0164496 0.321227 0)
(0.0176906 0.299977 0)
(0.0234407 0.300561 0)
(0.0275714 0.297683 0)
(0.0334258 0.292496 0)
(0.0383093 0.286068 0)
(0.0434839 0.278688 0)
(0.0484315 0.270198 0)
(0.0532029 0.260663 0)
(0.0577602 0.250104 0)
(0.0620253 0.238542 0)
(0.0659524 0.226001 0)
(0.0694817 0.212496 0)
(0.072551 0.198051 0)
(0.0751027 0.182698 0)
(0.0770849 0.166482 0)
(0.0784581 0.149442 0)
(0.0791966 0.131618 0)
(0.0792809 0.113055 0)
(0.0787454 0.0938045 0)
(0.0776122 0.0738688 0)
(0.075906 0.0533084 0)
(0.00866355 0.322116 0)
(0.0145462 0.316458 0)
(0.0152106 0.297455 0)
(0.0195534 0.296452 0)
(0.0222361 0.29311 0)
(0.0268333 0.287905 0)
(0.0303389 0.281552 0)
(0.0343018 0.274261 0)
(0.037977 0.265906 0)
(0.0415305 0.25657 0)
(0.0448853 0.246259 0)
(0.0479782 0.235 0)
(0.0507742 0.222814 0)
(0.0532213 0.209719 0)
(0.0552709 0.195735 0)
(0.056881 0.180892 0)
(0.0580147 0.165225 0)
(0.0586489 0.148767 0)
(0.0587675 0.131533 0)
(0.0583655 0.113559 0)
(0.0574752 0.09485 0)
(0.0561012 0.0753761 0)
(0.0542849 0.0552406 0)
(0.0080353 0.312455 0)
(0.0127838 0.313011 0)
(0.0129589 0.296051 0)
(0.0160292 0.293684 0)
(0.017493 0.290015 0)
(0.0210271 0.284772 0)
(0.0233566 0.278469 0)
(0.0263091 0.271254 0)
(0.0289122 0.263016 0)
(0.0314655 0.253854 0)
(0.0338393 0.243754 0)
(0.0359938 0.232748 0)
(0.0379001 0.220856 0)
(0.039515 0.208092 0)
(0.0407992 0.19448 0)
(0.0417168 0.180044 0)
(0.0422404 0.16481 0)
(0.0423439 0.148804 0)
(0.0420062 0.132035 0)
(0.0412134 0.11453 0)