/*--------------------------------*- C++ -*----------------------------------*\
| =========                 |                                                 |
| \\      /  F ield         | OpenFOAM: The Open Source CFD Toolbox           |
|  \\    /   O peration     | Version:  2206                                  |
|   \\  /    A nd           | Website:  www.openfoam.com                      |
|    \\/     M anipulation  |                                                 |
\*---------------------------------------------------------------------------*/
FoamFile
{
    version     2.0;
    format      ascii;
    arch        "LSB;label=32;scalar=64";
    class       surfaceScalarField;
    location    "0.95";
    object      alphaPhi0.water;
}
// * * * * * * * * * * * * * * * * * * * * * * * * * * * * * * * * * * * * * //

dimensions      [0 3 -1 0 0 0 0];

oriented        oriented;

internalField   nonuniform List<scalar> 
4432
(
-1.3801e-06
1.3801e-06
7.22099e-07
-2.1022e-06
3.97575e-06
-3.25366e-06
6.38883e-06
-2.41308e-06
7.52453e-06
-1.1357e-06
7.71028e-06
-1.85748e-07
7.44611e-06
2.64175e-07
7.09928e-06
3.46835e-07
6.84131e-06
2.5798e-07
6.68391e-06
1.574e-07
6.56931e-06
1.14599e-07
6.43252e-06
1.36792e-07
6.23059e-06
2.01918e-07
5.94914e-06
2.81452e-07
5.59374e-06
3.554e-07
5.17751e-06
4.16229e-07
4.7602e-06
4.17313e-07
4.39736e-06
3.62836e-07
4.26093e-06
1.36423e-07
4.17177e-06
8.91366e-08
4.79729e-06
-6.25512e-07
5.57392e-06
-7.76606e-07
5.50761e-06
-1.30159e-06
2.6817e-06
7.11242e-07
-4.11502e-06
3.32862e-06
-5.87103e-06
5.20058e-06
-4.28505e-06
6.09488e-06
-2.03e-06
6.31951e-06
-4.10385e-07
6.26988e-06
3.13796e-07
6.24967e-06
3.67043e-07
6.36816e-06
1.3949e-07
6.64098e-06
-1.15417e-07
7.03541e-06
-2.79829e-07
7.51516e-06
-3.42959e-07
8.05666e-06
-3.39567e-07
8.64088e-06
-3.02757e-07
9.26749e-06
-2.71183e-07
9.95963e-06
-2.759e-07
1.07067e-05
-3.29801e-07
1.15583e-05
-4.88745e-07
1.24079e-05
-7.13167e-07
1.37361e-05
-1.23912e-06
1.52013e-05
-2.0907e-06
1.21099e-05
2.31488e-06
1.76175e-05
-1.104e-06
3.78569e-06
2.24461e-07
-5.44348e-06
1.94139e-06
-7.58795e-06
3.15522e-06
-5.49887e-06
3.91867e-06
-2.79344e-06
4.42958e-06
-9.2129e-07
4.87412e-06
-1.30733e-07
5.33032e-06
-8.91505e-08
5.82856e-06
-3.5874e-07
6.35215e-06
-6.39006e-07
6.88248e-06
-8.10169e-07
7.41003e-06
-8.70512e-07
7.93328e-06
-8.62821e-07
8.47001e-06
-8.39487e-07
9.04491e-06
-8.46085e-07
9.70683e-06
-9.3782e-07
1.05358e-05
-1.15879e-06
1.16898e-05
-1.64274e-06
1.33501e-05
-2.37348e-06
1.63474e-05
-4.23632e-06
1.89136e-05
-4.65693e-06
1.27293e-05
8.49918e-06
2.82491e-05
-1.4582e-06
5.24389e-06
-1.66848e-06
-5.2332e-06
-1.00123e-06
-8.25521e-06
9.27499e-08
-6.59285e-06
1.23054e-06
-3.93123e-06
2.3443e-06
-2.03506e-06
3.42619e-06
-1.21262e-06
4.46203e-06
-1.12499e-06
5.44446e-06
-1.34116e-06
6.36315e-06
-1.55769e-06
7.19408e-06
-1.6411e-06
7.89564e-06
-1.57206e-06
8.42783e-06
-1.395e-06
8.74173e-06
-1.15339e-06
8.82211e-06
-9.26464e-07
8.68279e-06
-7.985e-07
8.39184e-06
-8.67842e-07
8.01671e-06
-1.26761e-06
7.74821e-06
-2.10498e-06
7.91092e-06
-4.39903e-06
7.42906e-06
-4.17508e-06
2.78013e-06
1.22993e-05
3.0929e-05
-2.42065e-06
7.66456e-06
-4.97113e-06
-2.68272e-06
-5.46065e-06
-7.76568e-06
-3.87409e-06
-8.17941e-06
-1.63393e-06
-6.17139e-06
4.44353e-07
-4.11334e-06
2.22512e-06
-2.99338e-06
3.78657e-06
-2.68645e-06
5.18388e-06
-2.73847e-06
6.42859e-06
-2.8024e-06
7.50087e-06
-2.71337e-06
8.35683e-06
-2.42802e-06
8.94231e-06
-1.98048e-06
9.22578e-06
-1.43686e-06
9.19851e-06
-8.99187e-07
8.76137e-06
-3.61356e-07
7.71938e-06
1.7417e-07
5.89761e-06
5.5417e-07
2.94199e-06
8.50635e-07
-1.91898e-06
4.61948e-07
-6.57264e-06
5.02022e-07
-6.12047e-06
1.24211e-05
2.47083e-05
-1.60377e-06
9.26833e-06
-4.00901e-06
-2.77468e-07
-4.49684e-06
-7.27792e-06
-3.13472e-06
-9.54161e-06
-9.00002e-07
-8.40615e-06
1.27631e-06
-6.28967e-06
3.00929e-06
-4.72636e-06
4.51126e-06
-4.18843e-06
6.03952e-06
-4.26673e-06
7.63177e-06
-4.39465e-06
9.21453e-06
-4.29614e-06
1.07145e-05
-3.92804e-06
1.1972e-05
-3.23796e-06
1.27138e-05
-2.17866e-06
1.26685e-05
-8.53883e-07
1.16407e-05
6.66464e-07
9.77106e-06
2.04382e-06
6.95776e-06
3.36745e-06
2.96131e-06
4.84708e-06
-2.77996e-06
6.20322e-06
-8.96979e-06
6.69195e-06
-6.91443e-06
1.10627e-05
1.9315e-05
6.1253e-06
3.14303e-06
9.67542e-06
-3.82758e-06
9.99206e-06
-7.59808e-06
8.46749e-06
-8.02069e-06
7.27767e-06
-7.21909e-06
7.19146e-06
-6.20495e-06
7.87486e-06
-5.41043e-06
8.82802e-06
-5.14182e-06
9.96393e-06
-5.40265e-06
1.13883e-05
-5.81892e-06
1.27573e-05
-5.66505e-06
1.34831e-05
-4.65391e-06
1.35007e-05
-3.25548e-06
1.3203e-05
-1.88099e-06
1.2724e-05
-3.74844e-07
1.17637e-05
1.62678e-06
1.00651e-05
3.74237e-06
7.78423e-06
5.64833e-06
5.0827e-06
7.54863e-06
1.98024e-06
9.30569e-06
-1.41969e-06
1.00919e-05
-7.88678e-07
1.04426e-05
1.89027e-05
1.03065e-05
-5.90596e-12
1.2815e-05
-3.3264e-10
1.05163e-05
-4.88017e-09
6.84369e-06
-4.69292e-08
4.22082e-06
-3.42914e-07
4.14974e-06
-1.35271e-06
6.06147e-06
-2.27239e-06
8.65015e-06
-3.2305e-06
1.11508e-05
-4.33615e-06
1.38255e-05
-6.01892e-06
1.60733e-05
-7.07303e-06
1.7001e-05
-5.57971e-06
1.61625e-05
-2.41644e-06
1.43285e-05
-4.61308e-08
1.30457e-05
9.07981e-07
1.27705e-05
1.90197e-06
1.29339e-05
3.57891e-06
1.28306e-05
5.75167e-06
1.2353e-05
8.0262e-06
1.17402e-05
9.91852e-06
1.03502e-05
1.12437e-05
7.65344e-06
1.30395e-05
2.65294e-05
1.37072e-05
-9.69077e-06
3.22207e-05
-1.50264e-05
5.45857e-05
-1.98292e-05
8.04202e-05
-2.3769e-05
9.89748e-05
-1.65373e-05
0.000105171
-4.18996e-06
3.91726e-05
7.99304e-06
5.93297e-06
5.81875e-06
4.11534e-06
2.10931e-06
1.17176e-07
3.23128e-06
-1.09048e-05
5.13991e-06
-8.3099e-06
-2.0925e-06
7.15678e-06
-1.51533e-05
2.18078e-05
-1.39778e-05
1.88855e-05
1.32981e-06
3.21839e-06
1.5665e-05
-1.4848e-05
1.8067e-05
-1.66399e-05
1.79248e-06
-1.66393e-05
1.43357e-05
-6.408e-06
1.53995e-05
-3.57099e-06
2.6663e-05
-1.26342e-06
5.79688e-05
-5.53276e-06
5.88703e-05
-1.53733e-05
3.37101e-05
-7.03465e-06
3.13571e-06
1.49957e-06
3.94234e-06
3.194e-06
2.71244e-06
2.81069e-06
2.85384e-06
2.61174e-06
4.87026e-06
4.73374e-07
3.96549e-06
-1.19009e-07
1.00197e-05
-4.3632e-06
7.7279e-06
-7.50958e-07
7.43306e-06
3.60951e-08
5.98572e-06
9.51484e-07
-8.30908e-06
1.78425e-05
-1.39589e-05
7.44288e-06
-3.05965e-05
2.72749e-06
-9.71979e-06
3.64993e-06
-4.89828e-06
2.75737e-06
-7.73977e-07
2.26424e-06
-1.05562e-06
2.74251e-06
-6.38649e-07
1.0166e-06
-1.58841e-06
1.67107e-06
-1.10341e-07
2.5497e-06
1.78684e-06
2.28168e-06
2.67746e-06
2.53657e-06
1.91558e-06
6.21878e-06
3.75496e-06
8.44056e-06
1.56344e-06
7.34693e-07
-6.90559e-08
-2.75936e-08
-2.27462e-08
-3.0754e-07
2.1949e-07
-5.28009e-07
-1.05612e-07
-6.87011e-06
4.98742e-07
-7.80778e-06
2.08325e-06
-3.83848e-05
2.07832e-06
-1.28348e-05
2.18684e-06
-5.59111e-06
2.45279e-06
-1.46387e-06
2.42909e-06
-1.35541e-06
1.40127e-06
1.79818e-07
5.68231e-06
-9.17583e-07
3.88861e-06
-4.14925e-07
1.71132e-06
3.31025e-06
1.05606e-06
2.91697e-06
3.56951e-06
4.93223e-06
5.16617e-06
4.98802e-06
2.6045e-07
7.06787e-07
4.43693e-08
1.12261e-07
7.11828e-08
-8.55799e-08
5.05558e-08
2.0369e-07
7.41142e-08
2.42158e-07
-2.87818e-06
7.24866e-07
-4.88734e-06
-9.44111e-06
-4.81856e-05
-2.67982e-06
-2.76567e-05
-1.67434e-06
-1.71251e-05
1.37689e-08
-8.75862e-06
1.48335e-06
-4.36274e-06
2.91358e-06
-7.97531e-07
1.57196e-06
4.7772e-08
-3.06234e-06
3.61205e-06
-5.10339e-06
5.25728e-06
-2.85428e-06
2.97176e-06
-2.84684e-06
2.21689e-06
-1.2046e-06
4.06297e-07
-5.50715e-07
4.95715e-08
-2.04404e-07
-2.11422e-07
4.98277e-08
-3.1955e-07
7.79887e-08
3.02338e-08
-3.22771e-08
3.34153e-07
-6.01568e-09
6.36054e-07
-5.18093e-06
-1.15563e-05
-5.7982e-05
-8.09993e-06
-1.94276e-05
-1.15906e-05
-1.35111e-05
-1.20086e-05
-8.19613e-06
-1.357e-05
-2.66524e-06
-1.45911e-05
9.91626e-08
-1.56989e-05
5.18967e-07
-1.10013e-05
9.98639e-07
-3.80389e-06
1.48677e-07
-1.51254e-06
3.2748e-07
-7.51387e-07
3.50721e-07
-5.36506e-07
1.63957e-07
-5.55354e-07
8.97006e-10
-9.64287e-08
-6.34647e-07
-2.37824e-08
-3.26881e-07
-4.69923e-09
8.05768e-08
-5.6309e-08
4.4978e-07
9.90262e-08
4.97001e-07
-2.57747e-06
-8.43519e-06
-6.37139e-05
-1.18346e-05
-7.47331e-06
-1.81359e-05
-7.07096e-06
-2.37013e-05
-2.50024e-06
-1.20246e-05
-6.06316e-08
-3.7997e-06
-4.64708e-08
-2.4366e-06
-4.75181e-09
-1.02222e-06
-1.02281e-07
-5.63404e-07
-4.42891e-08
-4.348e-07
2.06755e-07
-3.02916e-07
1.96589e-07
-2.64349e-07
8.10217e-08
-7.59885e-08
-2.92165e-07
3.75102e-08
-2.59073e-07
1.70484e-08
-2.9614e-08
5.52899e-09
4.4738e-08
3.9609e-08
3.69152e-07
5.96879e-07
2.21348e-07
-1.25626e-06
-6.58737e-06
-2.93364e-05
-1.03106e-05
2.97606e-06
-1.25604e-05
-2.73451e-06
-1.93087e-07
-3.50229e-07
-2.27186e-07
-1.49652e-08
-2.75966e-07
-1.56566e-08
-3.48674e-07
1.3904e-09
-4.03675e-07
-4.02154e-09
-3.03195e-07
4.89576e-08
-2.04593e-07
1.27165e-07
-1.0885e-07
8.90472e-08
-2.79982e-08
-2.23236e-08
3.59212e-08
-3.80266e-07
2.49396e-08
-2.86724e-07
4.90817e-09
-9.57012e-09
3.16264e-08
1.20723e-08
2.79706e-07
1.45469e-07
1.05666e-06
1.02096e-07
-9.78998e-11
-3.01083e-06
-9.86326e-06
-5.81042e-12
-6.13285e-14
-3.35618e-10
-9.63754e-13
-5.20654e-09
6.62895e-13
-5.22221e-08
4.16552e-12
-3.95134e-07
-3.70627e-12
-5.8079e-07
-1.26745e-13
-1.02364e-06
-3.49299e-13
-1.19169e-06
-1.85629e-11
-7.8839e-07
-4.33665e-10
8.26459e-07
-7.68882e-09
6.09464e-06
-1.27419e-07
1.1067e-05
-2.18317e-06
1.27367e-05
-1.25793e-06
1.33196e-05
-1.11587e-07
1.36657e-05
5.93925e-07
1.42907e-05
1.11379e-06
1.50147e-05
2.33216e-06
1.51368e-05
4.67737e-06
1.50943e-05
8.06869e-06
1.54869e-05
8.84048e-06
1.49866e-05
9.37522e-06
1.41204e-05
1.20402e-05
1.60901e-05
2.45539e-05
-6.21907e-14
-6.54421e-16
-9.94335e-13
3.47791e-15
-3.3144e-13
1.1799e-22
3.83409e-12
6.74592e-22
1.27822e-13
3.03758e-23
1.07702e-15
-2.92328e-20
-3.48221e-13
-2.85865e-19
-1.89111e-11
-3.56798e-18
-4.52576e-10
-2.52074e-17
-8.14139e-09
-3.52931e-16
-1.35561e-07
-4.21812e-15
-3.00891e-08
-1.25598e-13
1.50016e-06
8.20487e-13
4.80086e-06
7.08157e-14
9.09403e-06
-1.42241e-11
1.33941e-05
-5.88623e-10
1.65697e-05
3.53497e-08
1.80109e-05
5.26285e-07
1.83749e-05
1.71629e-06
1.69184e-05
3.18252e-06
1.68695e-05
2.94269e-06
1.3574e-05
4.52775e-06
1.2175e-05
5.11384e-06
-3.34547e-15
3.98486e-16
9.88126e-22
1.32434e-16
-4.89948e-22
2.19195e-21
-6.51501e-22
1.76613e-21
-4.81577e-23
-9.88255e-23
1.18092e-21
-1.62948e-20
1.6637e-20
-3.06885e-19
2.39036e-19
-3.77963e-18
1.57091e-18
-2.63695e-17
2.86366e-17
-3.78968e-16
3.37514e-16
-4.5166e-15
1.82512e-14
-1.43511e-13
-1.84799e-12
-2.71944e-12
-3.30317e-13
-4.44161e-12
-3.19727e-14
-1.45224e-11
2.22496e-12
-5.9088e-10
9.33276e-08
-4.11605e-09
3.94657e-07
-6.28007e-08
1.39162e-07
-3.6403e-07
-2.05706e-06
-1.00183e-06
-7.6815e-06
-1.33239e-06
-2.14438e-05
-8.02826e-07
2.19927e-07
-3.02203e-05
-9.2424e-17
1.37289e-15
2.2413e-21
4.00082e-17
2.86817e-22
3.62878e-21
-1.86541e-22
2.28965e-21
6.16251e-22
-3.70084e-22
2.11763e-20
-2.11284e-20
5.23857e-19
-4.89137e-19
4.62719e-18
-7.65438e-18
1.63993e-17
-4.23879e-17
7.3915e-17
-2.88822e-16
8.89048e-16
-6.39369e-15
-6.88198e-14
-1.71511e-13
1.61877e-12
-1.93122e-12
1.11989e-11
-2.35138e-12
-1.54062e-10
1.50738e-10
5.9479e-09
2.8787e-09
-4.219e-08
2.77338e-09
-5.21742e-07
-2.80973e-08
-1.21854e-06
-9.23095e-08
-2.21636e-06
-1.0558e-07
-3.31617e-06
-1.40631e-07
-3.97152e-06
-2.65377e-07
-1.17027e-07
-3.78623e-06
-3.96157e-17
8.14953e-13
1.25414e-21
3.91263e-19
1.43383e-22
1.69951e-21
-1.9892e-22
4.52583e-22
4.98815e-22
-7.63959e-22
9.03484e-21
-6.05306e-20
9.4526e-20
-2.13506e-18
-1.09476e-17
-3.04326e-17
-5.68137e-17
-1.71076e-16
1.19613e-15
-1.59299e-15
3.01947e-14
-3.47818e-14
3.18885e-13
-4.69873e-13
6.52163e-13
-2.62093e-12
8.05769e-12
1.18248e-11
4.42746e-10
3.17348e-10
-5.45242e-10
1.41684e-09
-1.22467e-08
-6.73792e-10
-4.84327e-08
-5.85561e-09
-1.24944e-07
-1.21077e-08
-2.09353e-07
-1.1284e-08
-3.3036e-07
-1.84941e-08
-5.35209e-07
-3.75169e-08
-1.91571e-08
-5.77687e-07
-8.27221e-14
1.14028e-12
5.23546e-22
4.01685e-15
8.42166e-23
-2.26777e-24
-3.75265e-22
-1.61076e-22
-8.33368e-22
-1.95824e-21
-1.14861e-19
-4.89447e-20
-8.51182e-18
-7.40211e-19
-1.07517e-16
-9.42937e-18
-3.61532e-16
-6.4639e-17
-1.7836e-15
-8.08859e-16
-2.60397e-14
-1.66513e-14
-3.97927e-13
-2.08208e-13
-4.00805e-12
-3.53129e-13
4.67121e-12
2.62143e-11
-2.78187e-10
1.84319e-10
-8.02875e-10
-5.92102e-11
-2.66512e-09
-2.66542e-10
-8.92085e-09
-8.79369e-10
-2.07353e-08
-1.79567e-09
-3.01848e-08
-1.38508e-09
-4.41134e-08
-2.03519e-09
-6.88537e-08
-3.20897e-09
-1.77999e-09
-7.14105e-08
-3.46215e-14
1.39641e-12
-5.49616e-23
1.21571e-14
-5.00321e-23
-7.19721e-24
-8.46863e-23
-1.89477e-22
-3.62513e-21
-3.77716e-21
-1.37972e-19
-4.81693e-20
-4.61013e-18
-3.45603e-19
-8.62948e-17
1.01633e-20
-5.43102e-16
3.48178e-17
-3.05106e-15
3.45925e-16
-3.43498e-14
1.66048e-15
-4.2002e-13
1.9263e-14
-3.42688e-12
5.63025e-13
-8.8935e-11
1.21482e-11
-1.02553e-10
-7.90827e-12
-2.14151e-10
-1.11038e-11
-6.01419e-10
-3.02327e-11
-1.71822e-09
-1.06293e-10
-3.68702e-09
-2.55392e-10
-4.90921e-09
-2.45424e-10
-6.15068e-09
-2.83604e-10
-7.46788e-09
-2.05351e-10
-9.49106e-11
-6.44145e-09
-1.1974e-14
1.62714e-12
-1.18032e-22
1.83056e-16
-1.15093e-22
-1.04491e-23
-2.42096e-22
-1.39907e-22
-9.4312e-21
-2.15784e-21
-2.65392e-19
-1.57008e-20
-5.62104e-18
1.31566e-19
-9.54978e-17
5.31029e-18
-7.24926e-16
7.82465e-17
-2.09217e-15
5.06932e-16
-1.03594e-14
2.83504e-15
-8.07024e-14
1.65256e-14
-5.75824e-12
3.16539e-13
-8.69292e-12
-7.63482e-13
-2.29095e-11
-7.65619e-13
-4.98357e-11
-9.0782e-13
-1.12735e-10
-2.69179e-12
-2.74356e-10
-1.06037e-11
-5.7909e-10
-3.25756e-11
-8.07104e-10
-4.62088e-11
-9.39125e-10
-5.85565e-11
-8.37485e-10
-2.65022e-11
-1.10471e-11
-4.62045e-10
-1.78827e-16
1.89141e-12
-1.48433e-22
4.22988e-18
-9.72761e-23
-7.00982e-23
-2.15555e-22
-5.54835e-23
-7.02979e-21
-5.00036e-22
-1.6457e-19
2.13108e-21
-2.87308e-18
1.54702e-19
-3.87574e-17
2.71207e-18
-3.74473e-16
3.13e-17
-2.35055e-15
2.94493e-16
-1.28145e-14
1.86568e-15
-1.21793e-13
7.45894e-15
-3.10498e-13
-1.72784e-14
-1.45736e-12
-4.52804e-14
-3.67936e-12
-5.3493e-14
-7.93357e-12
-1.06419e-13
-1.6373e-11
-2.39787e-13
-3.67065e-11
-1.10912e-12
-7.96466e-11
-4.20204e-12
-1.25665e-10
-7.74729e-12
-1.5846e-10
-1.07801e-11
-1.33982e-10
-4.97134e-12
-1.20665e-12
-6.97094e-11
-4.09425e-18
2.15053e-12
-2.72747e-21
1.38815e-19
-4.42708e-23
-2.75567e-21
-1.96957e-22
-1.05683e-23
-2.79121e-21
-2.16724e-23
-5.96009e-20
2.71807e-21
-9.2328e-19
6.2321e-20
-1.0905e-17
8.27512e-19
-1.05653e-16
8.24943e-18
-9.04894e-16
6.84038e-17
-5.22836e-15
4.30501e-16
-1.16684e-14
1.25839e-15
-4.15769e-14
2.27205e-15
-1.57076e-13
-1.40515e-15
-4.6731e-13
1.67003e-15
-1.12596e-12
6.57775e-16
-2.22533e-12
-1.00531e-14
-4.82458e-12
-1.34845e-13
-1.08025e-11
-5.58044e-13
-1.89069e-11
-1.17302e-12
-2.58703e-11
-1.60973e-12
-2.34149e-11
-7.92764e-13
2.88484e-13
-1.3845e-11
-1.35984e-19
2.4049e-12
-6.65303e-21
7.61448e-21
-9.65751e-24
-1.74212e-21
-4.16099e-23
-1.22619e-24
-7.14902e-22
1.83547e-23
-1.40764e-20
8.62429e-22
-1.98856e-19
1.46709e-20
-2.1589e-18
1.68336e-19
-1.90613e-17
1.50002e-18
-1.37749e-16
1.0859e-17
-7.37682e-16
6.41067e-17
-2.85717e-15
3.19191e-16
-6.66282e-15
1.33319e-15
-1.77663e-14
2.91826e-15
-5.77328e-14
4.27054e-15
-1.45882e-13
4.57765e-15
-3.09631e-13
5.81614e-15
-6.80088e-13
-9.34785e-15
-1.5419e-12
-6.14773e-14
-2.84082e-12
-1.54628e-13
-3.96107e-12
-2.10485e-13
-3.81197e-12
-4.31003e-14
2.29307e-13
-2.24517e-12
-1.03535e-20
2.65825e-12
-4.8955e-21
2.03199e-21
-1.93141e-24
-2.83914e-22
-5.26101e-24
-5.79145e-26
-1.37438e-22
6.55062e-24
-2.51486e-21
1.88066e-22
-3.29426e-20
2.7276e-21
-3.34195e-19
2.85865e-20
-2.73916e-18
2.42081e-19
-1.83779e-17
1.72789e-18
-1.03507e-16
1.07768e-17
-5.11809e-16
6.18291e-17
-1.89188e-15
3.19167e-16
-4.28229e-15
1.24623e-15
-8.51087e-15
2.26406e-15
-1.98664e-14
3.57538e-15
-4.46063e-14
4.44334e-15
-1.00534e-13
4.10183e-15
-2.27711e-13
1.41911e-15
-4.27165e-13
-1.13366e-14
-6.01606e-13
-2.05783e-14
-5.95917e-13
4.28649e-14
1.35413e-13
-3.44498e-13
-5.11008e-21
1.07303e-12
-2.98761e-21
1.45484e-21
-3.68182e-25
3.99488e-22
-9.30452e-25
2.31438e-26
-2.20493e-23
1.46422e-24
-3.80143e-22
3.43881e-23
-4.71186e-21
4.54509e-22
-4.58802e-20
4.5308e-21
-3.67708e-19
3.79021e-20
-2.49099e-18
2.77596e-19
-1.48667e-17
1.82634e-18
-8.12733e-17
1.09755e-17
-3.64966e-16
5.82481e-17
-1.05088e-15
2.41355e-16
-2.03832e-15
6.76901e-16
-3.63952e-15
1.31528e-15
-6.78733e-15
2.12469e-15
-1.53132e-14
3.88806e-15
-3.45753e-14
6.40187e-15
-6.49159e-14
5.65926e-15
-1.01221e-13
5.42921e-15
-1.1561e-13
3.83208e-14
9.88817e-14
-8.91601e-14
-2.14495e-21
5.91683e-15
-1.06381e-21
1.3749e-21
-8.12643e-26
3.32954e-22
-1.67741e-25
1.63993e-26
-3.17708e-24
2.6954e-25
-5.25074e-23
5.72025e-24
-6.27519e-22
7.14121e-23
-6.00058e-21
6.92332e-22
-4.84253e-20
5.80176e-21
-3.40239e-19
4.36801e-20
-2.14989e-18
2.99199e-19
-1.24294e-17
1.85229e-18
-5.9257e-17
9.87058e-18
-1.89026e-16
4.05526e-17
-4.1099e-16
1.18592e-16
-7.62595e-16
2.68614e-16
-1.54721e-15
5.73614e-16
-3.46746e-15
1.37968e-15
-6.10508e-15
2.71383e-15
-1.04661e-14
4.43257e-15
-2.48157e-14
9.57285e-15
-4.77509e-14
3.54912e-14
9.60331e-14
-6.43378e-14
-1.05527e-19
5.91729e-15
-4.81103e-22
6.64636e-21
-2.59932e-26
1.60834e-22
-3.96632e-26
1.72918e-26
-4.29665e-25
4.37852e-26
-6.91599e-24
8.93539e-25
-8.07792e-23
1.07512e-23
-7.69215e-22
1.02606e-22
-6.32015e-21
8.64743e-22
-4.6135e-20
6.6491e-21
-3.05548e-19
4.67136e-20
-1.8269e-18
2.93714e-19
-8.8035e-18
1.55505e-18
-2.86816e-17
6.24473e-18
-6.49028e-17
1.8098e-17
-1.29907e-16
4.22318e-17
-2.95687e-16
9.94246e-17
-7.07442e-16
2.67859e-16
-1.42963e-15
7.06662e-16
-2.67511e-15
1.90796e-15
-5.17235e-15
7.33263e-15
-1.20182e-14
3.07312e-14
3.3215e-13
-2.62197e-13
-5.93511e-18
6.27692e-15
-1.60996e-21
2.58424e-18
-2.17615e-26
1.32604e-22
-2.08699e-26
1.6164e-26
-5.5623e-26
7.55055e-27
-8.85835e-25
1.32132e-25
-1.01914e-23
1.55592e-24
-9.72437e-23
1.47015e-23
-8.14353e-22
1.246e-22
-6.12929e-21
9.71499e-22
-4.18801e-20
6.91418e-21
-2.54148e-19
4.362e-20
-1.21637e-18
2.28656e-19
-3.95389e-18
9.06871e-19
-9.19783e-18
2.64645e-18
-1.94671e-17
6.45453e-18
-4.5987e-17
1.63762e-17
-1.17749e-16
4.95667e-17
-3.05912e-16
1.84754e-16
-7.53404e-16
8.87947e-16
-3.23702e-15
7.3515e-15
-7.73911e-14
9.58544e-14
1.38613e-12
-1.25048e-12
-2.10006e-18
4.69216e-15
-1.82856e-21
5.35219e-18
-3.34326e-26
1.85978e-22
-3.23717e-27
2.35234e-26
-8.007e-27
2.84298e-27
-1.11326e-25
1.82292e-26
-1.26553e-24
2.16596e-25
-1.2087e-23
2.0256e-24
-1.02677e-22
1.72132e-23
-7.8841e-22
1.35247e-22
-5.47301e-21
9.67049e-22
-3.31947e-20
6.07867e-21
-1.56537e-19
3.15239e-20
-5.0813e-19
1.24767e-19
-1.21862e-18
3.75203e-19
-2.71308e-18
9.91853e-19
-6.85718e-18
2.95539e-18
-2.28232e-17
1.23726e-17
-9.94137e-17
7.78342e-17
-3.48651e-16
6.35997e-16
-1.19268e-15
6.772e-15
-1.61089e-14
1.00582e-13
1.48264e-12
-2.65369e-13
-1.45895e-18
2.27093e-15
-1.1567e-21
5.89635e-18
-6.64931e-26
2.22908e-22
-1.15453e-27
6.16015e-26
-2.48507e-27
1.89589e-27
-1.36387e-26
2.38254e-27
-1.54963e-25
2.89966e-26
-1.47063e-24
2.67308e-25
-1.25598e-23
2.26461e-24
-9.72777e-23
1.78267e-23
-6.77192e-22
1.27391e-22
-4.05804e-21
7.95344e-22
-1.87404e-20
4.08737e-21
-6.07761e-20
1.62987e-20
-1.51686e-19
5.18057e-20
-3.72069e-19
1.58412e-19
-1.17642e-18
6.40668e-19
-5.83229e-18
4.23608e-18
-4.43888e-17
4.05073e-17
-3.30584e-16
4.52341e-16
1.22932e-15
3.6463e-15
6.67157e-14
2.99773e-14
4.0731e-13
1.06637e-12
-1.2396e-18
1.10425e-15
-5.62175e-22
5.59973e-18
-1.53108e-25
8.28694e-23
-1.29183e-27
1.57193e-25
-7.73734e-28
1.61907e-27
-1.69784e-27
4.55538e-28
-1.87117e-26
3.69991e-27
-1.74577e-25
3.36743e-26
-1.48175e-24
2.8236e-25
-1.14434e-23
2.2141e-24
-7.89972e-23
1.57567e-23
-4.6359e-22
9.76639e-23
-2.08727e-21
4.99832e-22
-6.77349e-21
2.03581e-21
-1.80323e-20
7.06229e-21
-5.35751e-20
2.68957e-20
-2.45844e-19
1.61595e-19
-1.85063e-18
1.59638e-18
-1.89042e-17
1.94904e-17
-1.69244e-16
2.34553e-16
-5.86436e-16
2.19082e-15
1.04465e-14
1.31049e-14
9.46623e-14
2.53792e-13
-1.14362e-18
6.08757e-16
-2.16235e-22
5.12422e-18
-3.84982e-25
6.68289e-24
-4.29827e-27
4.08512e-25
-1.31708e-28
5.28934e-27
-2.87487e-28
2.54621e-28
-2.21259e-27
4.39241e-28
-2.01572e-26
4.02959e-27
-1.67871e-25
3.31984e-26
-1.27816e-24
2.58023e-25
-8.6655e-24
1.82482e-24
-4.9488e-23
1.12494e-23
-2.17115e-22
5.77804e-23
-7.11645e-22
2.44318e-22
-2.10183e-21
9.51986e-22
-8.10527e-21
4.67487e-21
-5.32746e-20
3.93943e-20
-5.10189e-19
4.83777e-19
-5.50307e-18
6.35204e-18
-5.03239e-17
7.62389e-17
-2.4535e-16
7.34995e-16
1.15452e-16
5.00281e-15
2.56795e-14
4.06033e-15
-1.12329e-18
4.02087e-16
-1.14081e-22
4.94206e-18
-7.59603e-25
6.1206e-24
-1.28981e-26
1.00547e-24
-7.28383e-29
1.47621e-26
-1.3925e-28
1.16414e-28
-2.53259e-28
5.6437e-29
-2.25054e-27
4.52583e-28
-1.81638e-26
3.65475e-27
-1.34934e-25
2.80605e-26
-8.9149e-25
1.97196e-25
-4.93806e-24
1.21358e-24
-2.11991e-23
6.31031e-24
-7.13076e-23
2.80693e-23
-2.40259e-22
1.24199e-22
-1.18272e-21
7.60343e-22
-9.50469e-21
7.62954e-21
-9.33767e-20
9.56023e-20
-8.74379e-19
1.18478e-18
-6.02384e-18
1.33264e-17
-1.44568e-17
1.28435e-16
2.23027e-16
9.70948e-16
4.43678e-15
8.51174e-15
-1.15603e-18
3.16979e-16
-1.03845e-22
4.93774e-18
-2.46675e-24
5.55e-23
-3.6018e-26
2.31663e-24
-1.74001e-28
3.67173e-26
-1.70484e-29
1.95738e-28
-3.22072e-29
2.25807e-29
-2.39931e-28
4.63732e-29
-1.86079e-27
3.72799e-28
-1.33716e-26
2.82623e-27
-8.5621e-26
1.97819e-26
-4.59765e-25
1.22167e-25
-1.94358e-24
6.47975e-25
-6.79042e-24
3.04891e-24
-2.58931e-23
1.51283e-23
-1.47959e-22
1.06533e-22
-1.20259e-21
1.10302e-21
-9.95423e-21
1.28935e-20
-5.91191e-20
1.47215e-19
6.02445e-20
1.57762e-18
7.54621e-18
1.56605e-17
1.17751e-16
1.27751e-16
7.69487e-16
1.79109e-15
-1.20859e-18
2.8955e-16
-2.39563e-22
5.08208e-18
-7.26651e-24
3.48112e-22
-1.30638e-25
6.25347e-24
-5.3255e-28
1.18888e-25
-4.90536e-30
5.82298e-28
-1.10253e-29
6.67689e-30
-2.38315e-29
4.35843e-30
-1.78097e-28
3.46873e-29
-1.23073e-27
2.61e-28
-7.61565e-27
1.82948e-27
-3.9689e-26
1.14115e-26
-1.65856e-25
6.2082e-26
-5.99562e-25
3.08218e-25
-2.46945e-24
1.66722e-24
-1.4459e-23
1.25444e-23
-1.00603e-22
1.27617e-22
-5.07205e-22
1.42742e-21
2.21422e-21
1.60768e-20
1.16882e-19
1.78427e-19
2.14622e-18
1.80546e-18
2.60356e-17
1.50457e-17
1.07955e-16
2.53126e-16
-1.29678e-18
2.97898e-16
-1.21804e-21
5.58444e-18
-3.70097e-23
2.23501e-21
-9.3173e-25
3.01246e-23
-2.44004e-27
6.96217e-25
-6.9524e-30
2.41128e-27
-1.38213e-30
6.12369e-30
-2.23452e-30
4.95849e-31
-1.55993e-29
2.87888e-30
-1.03582e-28
2.18389e-29
-6.19319e-28
1.54758e-28
-3.13598e-27
9.82933e-28
-1.29255e-26
5.50868e-27
-4.7265e-26
2.86783e-26
-1.95443e-25
1.64396e-25
-1.01534e-24
1.27024e-24
-4.31929e-24
1.27911e-23
2.74351e-23
1.44405e-22
1.26217e-21
1.69287e-21
2.55544e-20
1.93089e-20
3.80647e-19
1.972e-19
4.24466e-18
1.65265e-18
1.20024e-17
3.8717e-17
-1.40269e-18
3.2123e-16
-8.60907e-21
6.65892e-18
-3.22872e-22
1.67849e-20
-8.92502e-24
2.364e-22
-2.7493e-26
4.6078e-24
-2.33818e-29
2.17481e-26
-1.98329e-31
2.30941e-29
-2.35828e-31
2.67064e-31
-1.21401e-30
2.06572e-31
-7.79653e-30
1.63505e-30
-4.51606e-29
1.18874e-29
-2.22111e-28
7.76842e-29
-8.93112e-28
4.50618e-28
-3.1657e-27
2.44665e-27
-1.16956e-26
1.45728e-26
-3.78825e-26
1.14243e-25
2.53343e-25
1.17037e-24
1.10028e-23
1.3732e-23
2.32603e-22
1.65016e-22
3.90422e-21
1.89791e-21
5.3351e-20
1.94411e-20
5.66524e-19
1.62514e-19
1.15594e-18
5.0656e-18
-1.34311e-18
3.66188e-16
-6.35174e-20
1.22811e-17
-3.35008e-21
1.42656e-19
-8.6521e-23
2.29529e-21
-3.4592e-25
2.6672e-23
-2.74359e-28
1.81906e-25
-8.60802e-32
2.58089e-28
-5.19841e-32
9.02415e-32
-8.02205e-32
1.61782e-32
-5.08573e-31
1.08043e-31
-2.86788e-30
8.24861e-31
-1.36309e-29
5.62133e-30
-5.20099e-29
3.39483e-29
-1.62645e-28
1.91681e-28
-3.74658e-28
1.17715e-27
2.24588e-27
9.47376e-27
8.51403e-26
1.00697e-25
1.78459e-24
1.21005e-24
3.14307e-23
1.46595e-23
4.83828e-22
1.68687e-22
6.26931e-21
1.71796e-21
6.40723e-20
1.42244e-20
9.90588e-20
5.53829e-19
5.07426e-18
4.51529e-16
-3.33553e-19
5.10977e-17
-3.12992e-20
1.28336e-18
-9.21285e-22
2.55605e-20
-4.58332e-24
1.43704e-22
-3.73482e-27
1.30917e-24
-1.24852e-31
2.87144e-27
-3.32149e-33
1.0235e-31
-5.46903e-33
6.44185e-33
-2.73157e-32
1.01502e-32
-1.5081e-31
5.14351e-32
-6.77531e-31
3.72401e-31
-2.24132e-30
2.36213e-30
-4.11935e-30
1.39138e-29
2.48135e-29
8.87815e-29
6.64615e-28
7.42496e-28
1.24333e-26
8.08829e-27
2.17399e-25
9.82199e-26
3.50872e-24
1.18665e-24
5.11015e-23
1.35299e-23
6.35019e-22
1.35803e-22
6.27464e-21
1.11226e-21
7.58908e-21
5.22977e-20
5.68659e-17
5.70983e-16
-4.0952e-20
1.87655e-16
-1.71188e-19
1.05188e-17
-7.13051e-21
2.89824e-19
-6.34695e-23
7.2501e-22
-3.81997e-26
5.05186e-24
-8.34198e-31
2.5976e-26
-8.12363e-34
1.2342e-30
-8.77272e-34
1.63749e-33
-1.78285e-33
5.46216e-33
-5.79217e-33
6.85084e-33
-2.19486e-32
2.27397e-32
-3.20948e-32
1.52474e-31
3.80531e-31
9.54129e-31
6.28933e-30
6.35949e-30
8.83369e-29
5.47794e-29
1.37953e-27
6.00885e-28
2.20943e-26
7.26568e-27
3.34447e-25
8.49403e-26
4.63849e-24
1.02306e-24
5.5329e-23
1.10932e-23
5.34106e-22
7.55349e-23
5.14662e-22
4.32309e-21
1.08315e-16
5.14226e-16
1.72797e-17
3.95749e-16
8.90689e-20
6.02728e-17
-2.38027e-20
2.53311e-18
-4.03805e-22
1.0619e-20
-7.85265e-25
-3.13777e-23
-2.66678e-29
6.6639e-25
-4.94479e-32
6.52405e-29
-1.17335e-34
2.17024e-31
-2.3227e-34
8.58634e-34
-1.70889e-34
2.03123e-33
2.02984e-34
2.39037e-33
6.67853e-33
1.53666e-32
7.61213e-32
6.20679e-32
7.59225e-31
4.3317e-31
9.01293e-30
3.78636e-30
1.27349e-28
3.99689e-29
1.89597e-27
6.78935e-28
2.8563e-26
8.80723e-27
4.15173e-25
3.10476e-25
3.8281e-24
6.28826e-24
3.78712e-23
7.23712e-24
4.02592e-23
3.08505e-22
1.12328e-16
4.28368e-16
6.2439e-17
5.19642e-16
6.88689e-18
1.56472e-16
1.6487e-19
1.26633e-17
-5.2269e-24
1.30835e-19
-1.69652e-24
2.51309e-23
-4.45081e-29
1.0249e-23
1.78139e-32
1.26696e-27
6.61338e-34
3.50001e-30
5.75909e-34
3.156e-32
7.43089e-35
1.08596e-33
2.18099e-34
1.82336e-33
1.04968e-33
5.77942e-33
7.92538e-33
9.99211e-33
7.15386e-32
2.8265e-32
7.71613e-31
2.45121e-31
1.3829e-29
4.03686e-30
2.26251e-28
4.07669e-28
3.37287e-27
4.69769e-27
2.35461e-26
3.51887e-26
5.50824e-26
1.04354e-25
3.34771e-24
3.94449e-24
2.58081e-23
1.77862e-23
7.60064e-17
2.94066e-16
7.73905e-17
4.95844e-16
2.1402e-17
2.03419e-16
1.48747e-18
2.3453e-17
2.61708e-20
5.25908e-19
2.79053e-22
4.13252e-21
2.35432e-24
2.27613e-22
5.33788e-26
4.71536e-24
5.72704e-28
6.00839e-26
5.54083e-30
6.20786e-28
6.71512e-32
5.8882e-30
5.19595e-33
5.633e-32
5.06284e-34
2.80847e-33
7.07163e-34
2.91498e-33
5.6436e-33
1.84081e-33
9.63261e-32
2.05815e-32
6.51357e-31
2.09141e-30
-1.28943e-30
-3.54186e-30
-1.06254e-27
-2.49399e-27
-2.59036e-26
-5.19225e-26
-3.68077e-25
-6.29525e-25
-1.58289e-24
-2.30579e-24
-2.46953e-24
-1.9966e-24
2.59425e-17
1.25038e-16
6.63468e-17
3.99093e-16
2.52555e-17
1.96892e-16
2.54507e-18
2.47771e-17
8.07482e-20
7.55588e-19
1.77755e-21
1.46087e-20
3.20196e-23
8.69283e-22
5.6211e-25
3.41544e-23
1.32085e-26
7.63789e-25
2.12026e-28
1.39449e-26
3.06549e-30
2.18468e-28
5.11939e-32
3.13249e-30
5.79923e-33
4.31646e-32
3.65451e-34
1.49892e-33
3.65956e-34
1.74154e-34
3.95512e-33
1.33394e-32
-4.86346e-31
-1.44798e-30
-1.57455e-29
-4.09786e-29
-9.41979e-28
-2.12934e-27
-1.81811e-26
-3.55344e-26
-2.17156e-25
-3.65568e-25
-1.04613e-24
-1.51075e-24
-3.41678e-24
-2.77127e-24
3.06833e-18
3.20277e-17
3.68921e-17
2.7002e-16
2.10745e-17
1.39526e-16
2.47853e-18
1.81744e-17
9.77964e-20
6.94401e-19
3.09123e-21
2.41104e-20
8.19944e-23
1.31208e-21
1.69555e-24
5.55801e-23
2.94152e-26
1.71124e-24
5.87786e-28
4.28479e-26
1.37014e-29
8.81262e-28
2.52069e-31
1.63709e-29
4.40001e-33
2.81578e-31
4.60167e-35
4.65068e-33
5.87823e-35
1.28428e-34
-4.37117e-34
-1.38637e-33
-3.74637e-31
-1.07139e-30
-1.03384e-29
-2.62885e-29
-5.1311e-28
-1.14864e-27
-8.77172e-27
-1.71591e-26
-9.08448e-26
-1.54349e-25
-4.13243e-25
-6.06277e-25
-1.52863e-24
-1.21409e-24
-5.70089e-19
6.86036e-18
1.75095e-17
1.36325e-16
1.24592e-17
6.42695e-17
1.40583e-18
7.30636e-18
6.35852e-20
3.163e-19
2.58016e-21
1.57497e-20
8.61682e-23
1.05831e-21
2.21749e-24
5.38718e-23
4.81375e-26
1.92442e-24
9.26839e-28
5.27156e-26
1.63005e-29
1.22271e-27
2.75564e-31
2.47922e-29
4.67649e-33
4.70506e-31
1.23996e-34
8.97574e-33
8.5413e-35
1.67011e-34
-6.65233e-34
-2.06179e-33
-1.92433e-31
-5.46521e-31
-5.17111e-30
-1.32386e-29
-2.34603e-28
-5.34785e-28
-3.60292e-27
-7.24379e-27
-3.24603e-26
-5.71112e-26
-1.31326e-25
-2.00707e-25
-5.37036e-25
-4.07514e-25
-7.0131e-19
1.49798e-18
7.65376e-18
4.7574e-17
4.83895e-18
1.84176e-17
4.80607e-19
1.84184e-18
2.47842e-20
9.6673e-20
1.17792e-21
6.02853e-21
4.66238e-23
4.06428e-22
1.46543e-24
2.21046e-23
3.79399e-26
9.5139e-25
8.43488e-28
3.18015e-26
1.68464e-29
8.93938e-28
3.149e-31
2.2133e-29
5.77771e-33
4.96487e-31
1.10346e-34
9.76974e-33
9.90251e-35
1.71962e-34
-3.86817e-34
-1.21512e-33
-8.50519e-32
-2.47904e-31
-2.27803e-30
-6.05284e-30
-9.5691e-29
-2.28589e-28
-1.32464e-27
-2.81367e-27
-1.0425e-26
-1.95073e-26
-3.60138e-26
-5.88605e-26
-1.78449e-25
-1.26108e-25
3.30085e-21
3.03726e-19
2.86911e-18
1.17015e-17
1.32397e-18
3.83582e-18
1.19262e-19
3.76373e-19
6.74667e-21
2.41136e-20
3.46455e-22
1.69464e-21
1.48034e-23
1.09648e-22
5.20029e-25
5.71621e-24
1.55061e-26
2.48402e-25
3.98938e-28
9.27451e-27
9.05981e-30
2.97272e-28
1.895e-31
8.39561e-30
3.77707e-33
2.08408e-31
7.17283e-35
4.56422e-33
6.08868e-35
8.76977e-35
-1.81923e-34
-6.0054e-34
-3.39452e-32
-1.0501e-31
-9.10651e-31
-2.59222e-30
-3.53219e-29
-9.11563e-29
-4.41508e-28
-1.02052e-27
-3.05104e-27
-6.25148e-27
-8.71847e-27
-1.56836e-26
-6.17552e-26
-3.94847e-26
4.80334e-21
5.79044e-20
8.2737e-19
2.25887e-18
2.8187e-19
6.71195e-19
2.33321e-20
6.80439e-20
1.38132e-21
5.05021e-21
7.43855e-23
3.73184e-22
3.33922e-24
2.35838e-23
1.24503e-25
1.21456e-24
3.9569e-27
5.25197e-26
1.09212e-28
1.94362e-27
2.67729e-30
6.23816e-29
6.01029e-32
1.76174e-30
1.27622e-33
4.4747e-32
2.55993e-35
1.04875e-33
2.04217e-35
2.19029e-35
-7.5686e-35
-2.72423e-34
-1.23326e-32
-4.19493e-32
-3.31128e-31
-1.04516e-30
-1.17974e-29
-3.40223e-29
-1.33279e-28
-3.46743e-28
-8.1229e-28