/*--------------------------------*- C++ -*----------------------------------*\
| =========                 |                                                 |
| \\      /  F ield         | OpenFOAM: The Open Source CFD Toolbox           |
|  \\    /   O peration     | Version:  2206                                  |
|   \\  /    A nd           | Website:  www.openfoam.com                      |
|    \\/     M anipulation  |                                                 |
\*---------------------------------------------------------------------------*/
FoamFile
{
    version     2.0;
    format      ascii;
    arch        "LSB;label=32;scalar=64";
    class       volScalarField;
    location    "0.9";
    object      alpha.water;
}
// * * * * * * * * * * * * * * * * * * * * * * * * * * * * * * * * * * * * * //

dimensions      [0 0 0 0 0 0 0];

internalField   nonuniform List<scalar> 
2268
(
1
1
1
1
1
1
1
1
1
1
1
1
1
0.999998
0.992534
0.956978
0.968712
0.993747
0.991639
0.983317
0.984329
0.995314
0.999604
1
1
1
1
1
1
1
1
1
1
1
1
1
0.999994
0.979706
0.947776
0.947494
0.958229
0.95835
0.956903
0.956903
0.992286
0.999988
1
1
1
1
1
1
1
1
1
1
1
1
1
0.999999
0.997828
0.969978
0.94758
0.947494
0.956624
0.974216
0.98429
0.999395
0.999988
1
1
1
1
1
1
1
1
1
1
1
1
1
1
1
0.999305
0.990886
0.991406
1
1
1
1
0.999989
1
1
1
1
1
1
1
1
1
1
1
1
1
1
1
1
1
1
1
1
1
1
1
1
1
1
1
1
1
1
1
1
1
1
1
1
1
1
1
1
1
1
1
1
1
0.999993
1
1
1
1
0.999997
0.999918
0.999855
1
1
1
1
1
1
1
1
1
1
1
0.999995
0.999985
0.999995
1
0.999974
1
1
1
1
0.99999
0.998471
0.998365
0.999988
0.999997
0.999996
1
1
1
1
1
1
0.999999
0.999986
0.999863
0.999623
0.999763
0.999993
0.999978
0.980516
0.970405
0.974892
0.987403
0.987403
0.987403
0.947076
0.934548
0.851079
0.786831
0.632723
0.631006
0.631006
0.845935
0.877004
0.877006
0.877004
0.876956
0.876797
0.987026
0.981798
0.938874
0.907039
0.987403
0.987403
0.983956
0.887763
0.59721
0.601326
0.780469
0.676793
0.632706
0.652733
0.877004
0.877004
0.876956
0.876797
0.855096
0.987041
0.949094
0.776751
0.789901
0.9874
0.987398
0.923857
0.62601
0.482433
0.73916
0.78052
0.780601
0.730763
0.753134
0.779913
0.70417
0.753098
0.724069
0.529498
0.986705
0.944172
0.776577
0.892767
0.987334
0.92117
0.567486
0.300579
0.710898
0.78027
0.780601
0.780632
0.780616
0.78028
0.624995
0.620825
0.514846
0.448261
0.448261
0.986241
0.865892
0.776648
0.861227
0.98508
0.680062
0.105391
0.122482
0.622059
0.777736
0.780625
0.780625
0.780629
0.780616
0.780117
0.74447
0.56621
0.565123
0.479663
0.986005
0.780348
0.777278
0.779216
0.961056
0.500518
0.0551675
0.0549657
0.0947159
0.317808
0.751271
0.780625
0.780616
0.780363
0.758394
0.71651
0.826083
0.829229
0.829229
0.984367
0.794494
0.967096
0.778474
0.923015
0.361911
0.0531705
0.052715
0.0524618
0.0536191
0.299341
0.780399
0.780363
0.723785
0.650984
0.707916
0.764753
0.828687
0.829562
0.965699
0.964622
0.989167
0.828107
0.8907
0.236212
0.052715
0.0525386
0.052715
0.0524761
0.170318
0.7661
0.7768
0.767799
0.64077
0.355806
0.233206
0.598317
0.828687
1
1
1
1
0.999993
0.999993
0.99999
0.999977
0.975847
0.88836
0.82773
0.820085
0.853922
0.899109
0.939597
0.968533
0.985003
0.987873
0.903682
0.736219
0.641238
0.793575
0.99997
0.969627
0.999145
1
0.968681
0.936229
0.98499
0.999965
0.920719
0.28364
0.0661498
0.07664
0.09085
0.103876
0.161396
0.378786
0.635732
0.696011
0.530007
0.284005
0.130809
0.104595
0.138946
0.441133
0.834383
0.84153
0.857528
0.968253
0.966336
0.91182
0.35308
0.0747885
0.0391383
0.0265114
0.0263243
0.0261428
0.0262111
0.0494832
0.155406
0.186915
0.172227
0.149745
0.11636
0.104704
0.104235
0.105381
0.183714
0.806253
0.868243
0.902114
0.907496
0.416167
0.157748
0.0788612
0.102858
0.116493
0.114737
0.0324897
0.0262147
0.0261392
0.0262111
0.0265901
0.0310871
0.0871147
0.117213
0.112908
0.105078
0.181242
0.654797
0.918251
0.815633
0.850521
0.492204
0.118165
0.00355266
0.00156904
0.0557371
0.116493
0.117225
0.117416
0.117416
0.117343
0.116982
0.0977798
0.0539707
0.172556
0.201001
0.202576
0.191368
0.343659
0.498302
0.483868
0.36989
0.772762
0.29656
0.0176612
0.00159947
0.000410602
0.000152354
0.000377392
0.000245757
0.000748271
0.000685749
0.0283477
0.102538
0.115718
0.112736
0.056555
0.0174571
0.0874406
0.201001
0.171366
0.0159422
0.00949635
0.00938804
0.0109877
0.625839
0.00654685
0.00142792
0.000302296
6.0865e-05
1.24074e-05
1.83866e-07
6.68298e-08
6.02821e-08
8.70523e-08
2.24604e-07
8.83771e-07
3.89494e-06
1.59201e-05
6.24163e-05
0.000248793
0.00108031
0.0466379
0.143952
0.0172227
0.00933498
0.00920878
0.00965931
0.489935
0.00143197
0.000309216
6.16596e-05
1.11529e-05
2.12405e-06
4.30325e-08
6.07828e-08
5.1176e-08
5.08623e-08
6.18517e-08
1.43055e-07
6.83078e-07
3.65466e-06
1.77017e-05
8.03624e-05
0.000389274
0.0169586
0.0581709
0.0508948
0.00924846
0.00934593
0.0105398
0.501558
0.000531322
6.2726e-05
1.18389e-05
2.38494e-06
3.24298e-06
2.29419e-06
1.34031e-07
4.93989e-08
4.81543e-08
4.63626e-08
4.02452e-08
1.01697e-07
5.78756e-07
3.63712e-06
1.9228e-05
9.87538e-05
0.00125332
0.0325673
0.052268
0.0107525
0.00854259
0.0666074
0.499656
8.68241e-05
1.32306e-05
2.4562e-06
6.95072e-07
6.1061e-06
6.2779e-06
3.27486e-06
3.90117e-08
4.63626e-08
4.56886e-08
3.19701e-08
3.57033e-08
1.01068e-07
6.66926e-07
3.7294e-06
2.21414e-05
0.000123355
0.0055086
0.0258312
0.0204533
0.00711509
0.127873
0.337905
0.00286442
2.8323e-06
5.39515e-07
1.53278e-07
3.18328e-06
4.78034e-06
5.20433e-07
3.22269e-08
5.47514e-08
9.63361e-08
3.03611e-08
1.49591e-08
3.4172e-08
6.92451e-06
3.65077e-05
4.23742e-05
8.39145e-05
0.000103409
0.00372586
0.00857352
0.00262789
0.00280734
0.0295118
0.000742515
6.3275e-07
1.2119e-07
3.85047e-08
7.53061e-08
1.56178e-07
1.13296e-08
1.07754e-08
2.92263e-08
3.89033e-08
2.85851e-08
1.3509e-08
1.91269e-09
1.89016e-09
5.3581e-05
0.000166356
0.000171433
0.000132493
0.000132161
0.000132493
0.000135561
0.000149136
0.000149531
1.94592e-06
1.39243e-07
3.84026e-08
1.99313e-08
1.76247e-08
1.13183e-08
1.07736e-08
1.07757e-08
1.07755e-08
2.57909e-08
2.88107e-08
1.4441e-08
1.85739e-09
1.23156e-09
9.44214e-10
6.09669e-05
0.000171605
0.000132339
0.000132493
0.000135561
0.000349058
0.000608005
4.34294e-05
5.7259e-07
3.24157e-08
2.02023e-08
1.65814e-08
1.48998e-08
1.27951e-08
1.13332e-08
1.07753e-08
1.1328e-08
9.26299e-09
1.13056e-08
1.28663e-08
3.83744e-09
1.47708e-09
9.36932e-10
9.40772e-10
0.000100025
0.000275445
0.000308105
0.000386218
0.000921871
0.000921228
2.96464e-05
8.53652e-06
2.35264e-08
1.67395e-08
1.69541e-08
1.6593e-08
3.15135e-08
9.78229e-08
1.92743e-08
2.06413e-08
3.30024e-09
1.8393e-09
1.69745e-09
2.72167e-09
2.25757e-09
1.23985e-09
9.36901e-10
9.48308e-10
3.50902e-05
0.000295978
0.000671403
0.000911173
0.000922042
8.89104e-05
6.87824e-05
1.65528e-08
1.6966e-08
1.69664e-08
1.69647e-08
1.36888e-07
5.69106e-07
2.36737e-07
2.20935e-07
1.79951e-08
2.53411e-09
1.48216e-09
1.41378e-09
1.41378e-09
1.43389e-09
1.41706e-09
9.85639e-10
1.81752e-10
1.85284e-10
2.26096e-05
0.000120708
0.000765264
2.37468e-05
0.000157875
6.19456e-07
1.82078e-08
1.69664e-08
2.76031e-08
6.20705e-07
3.53035e-05
5.82633e-05
9.6266e-06
1.92492e-06
6.1786e-08
2.50306e-09
1.47416e-09
1.41378e-09
1.43417e-09
1.46377e-09
1.3594e-09
8.73744e-10
2.4213e-10
1.6431e-10
1.64294e-10
2.45207e-09
8.35585e-07
0.000133995
0.000114615
6.24061e-07
3.06041e-08
6.66065e-08
2.75658e-06
0.000309221
0.000364933
0.000136042
5.11944e-06
1.68742e-07
8.35624e-09
1.99708e-09
1.47673e-09
1.54177e-09
1.63491e-09
1.53322e-09
1.07336e-09
3.2029e-10
1.64284e-10
9.59812e-08
3.17729e-08
6.10627e-09
4.30449e-05
0.000166518
0.000140952
5.62735e-06
2.00761e-07
0.000132865
0.000364933
0.000366935
0.000291578
1.38638e-05
3.0276e-07
2.9556e-08
3.91714e-09
1.74471e-09
1.60569e-09
1.66958e-09
1.61859e-09
1.14968e-09
3.34643e-10
3.54321e-10
2.82066e-07
2.79764e-07
5.4873e-09
6.10627e-09
0.000140353
0.000258571
0.000265728
0.000242051
0.000360327
0.000366935
0.000364933
0.000242363
1.00738e-05
4.46985e-07
4.78428e-08
5.68981e-09
1.904e-09
1.57101e-09
1.65155e-09
1.60898e-09
1.19989e-09
5.36069e-10
8.82977e-11
5.07197e-11
3.23556e-12
4.72597e-09
4.03349e-09
5.35767e-06
0.000248648
0.000338892
0.000357859
0.000364913
0.000366152
0.000366614
0.000120298
2.33043e-06
3.07549e-07
3.50242e-08
4.32105e-09
1.23372e-09
1.10965e-09
1.45567e-09
1.3415e-09
8.5655e-10
3.27459e-10
7.58323e-11
3.23556e-12
3.02345e-12
2.04596e-09
2.20296e-09
1.43419e-08
7.23833e-05
0.000350146
0.000363726
0.000365364
0.000364913
0.000219096
1.14846e-05
6.99166e-07
9.21498e-08
1.06632e-08
1.3897e-09
5.10703e-10
7.87119e-10
8.55648e-10
7.13397e-10
4.03813e-10
1.43413e-10
3.54371e-11
8.1602e-12
3.36795e-12
5.21063e-10
1.21651e-09
3.11465e-08
4.93289e-07
0.000102332
0.000310272
0.000350144
0.00019482
1.70825e-05
8.81219e-07
1.26382e-07
1.58496e-08
1.87356e-09
3.10431e-10
2.8118e-10
3.59273e-10
3.34379e-10
2.37782e-10
1.17226e-10
4.25205e-11
1.4644e-11
4.86009e-12
1.54721e-12
8.81083e-11
3.42861e-10
1.3387e-08
2.28723e-07
1.91494e-06
3.52417e-05
3.41128e-05
6.9947e-06
8.99196e-07
1.6833e-07
2.03238e-08
2.26252e-09
3.13672e-10
8.42928e-11
1.09136e-10
1.03321e-10
7.96191e-11
4.75571e-11
2.23872e-11
9.88374e-12
4.75228e-12
2.15229e-12
7.69814e-13
1.92191e-11
7.28118e-11
2.27139e-09
5.01375e-08
2.94578e-07
8.91604e-07
7.60881e-07
3.14198e-07
8.05903e-08
1.77204e-08
2.59584e-09
3.56605e-10
5.34433e-11
3.13213e-11
2.34854e-11
1.73614e-11
1.1215e-11
6.31855e-12
3.37539e-12
1.84415e-12
1.00476e-12
4.59093e-13
1.71434e-13
8.59865e-12
8.70797e-11
3.67064e-10
4.96382e-09
3.1703e-08
9.83904e-08
8.30899e-08
3.33352e-08
8.44796e-09
1.72543e-09
2.99773e-10
4.91947e-11
1.42053e-11
4.82397e-12
2.78831e-12
1.8168e-12
1.10794e-12
6.64449e-13
4.00099e-13
2.25791e-13
1.09858e-13
4.46856e-14
3.06269e-14
1.88236e-12
5.39651e-11
5.84502e-11
4.48976e-10
2.887e-09
9.17673e-09
7.73226e-09
3.06571e-09
8.22814e-10
1.86896e-10
4.29854e-11
1.17239e-11
1.84762e-12
4.13623e-13
2.32707e-13
1.52251e-13
9.32906e-14
5.61432e-14
3.2749e-14
1.58304e-14
6.41531e-15
4.87923e-15
5.7081e-15
1.86665e-13
1.25607e-11
2.02047e-11
4.67728e-11
2.57761e-10
7.54393e-10
6.35654e-10
2.82706e-10
8.70499e-11
2.86552e-11
8.95307e-12
1.34049e-12
1.36486e-13
2.9783e-14
1.7568e-14
1.19153e-14
7.11768e-15
3.87216e-15
1.94415e-15
7.529e-16
3.91197e-16
4.1953e-16
5.99765e-16
1.75301e-14
1.4362e-12
4.18642e-12
9.338e-12
2.81593e-11
7.28155e-11
6.25336e-11
2.9167e-11
1.5316e-11
5.13651e-12
8.5536e-13
8.96421e-14
9.5111e-15
2.15685e-15
1.33144e-15
8.97845e-16
5.01815e-16
2.4074e-16
1.04028e-16
3.54944e-17
1.67552e-17
1.67318e-17
3.25101e-17
1.78626e-15
1.43656e-13
4.21356e-13
1.48337e-12
4.12135e-12
6.32697e-12
6.20111e-12
5.98419e-12
2.20027e-12
4.08191e-13
5.2127e-14
5.7098e-15
6.23047e-16
1.56208e-16
9.91069e-17
6.42271e-17
3.32073e-17
1.42957e-17
5.57303e-18
1.58427e-18
5.58889e-19
1.06312e-18
1.29409e-17
1.75007e-16
1.3947e-14
3.18753e-14
1.20408e-13
5.08973e-13
1.07326e-12
1.02689e-12
6.01076e-13
1.43783e-13
2.31871e-14
3.05905e-15
3.3256e-16
3.78579e-17
1.08626e-17
6.97167e-18
4.28282e-18
2.03995e-18
7.82425e-19
2.5309e-19
4.67389e-20
5.1687e-20
5.26787e-19
9.2857e-18
1.57282e-17
1.27074e-15
2.33875e-15
7.43092e-15
3.44912e-14
8.55671e-14
7.48279e-14
3.30309e-14
7.72455e-15
1.27275e-15
1.65183e-16
1.77055e-17
2.14086e-18
7.12445e-19
4.55165e-19
2.59411e-19
1.05562e-19
2.77925e-20
5.2544e-21
5.70609e-22
1.23937e-20
3.01555e-19
4.56838e-18
1.2404e-18
1.0645e-16
1.64072e-16
4.54597e-16
1.92415e-15
4.46917e-15
3.78602e-15
1.72021e-15
4.00854e-16
6.48012e-17
8.21965e-18
8.70955e-19
1.14001e-19
4.36e-20
2.62288e-20
1.09476e-20
2.10173e-21
1.13416e-22
-1.59807e-21
-2.65895e-21
1.35189e-21
9.45195e-20
1.2827e-18
5.87509e-20
8.21797e-18
1.07085e-17
2.67389e-17
1.06895e-16
2.34501e-16
1.94948e-16
8.56737e-17
1.94432e-17
3.07026e-18
3.80097e-19
4.00613e-20
5.73593e-21
2.18415e-21
6.16024e-22
5.88464e-23
-1.57921e-21
-3.93349e-21
-5.11445e-21
-4.40073e-21
-1.66956e-21
1.1975e-20
2.03484e-19
6.4369e-22
5.84645e-19
6.48499e-19
1.48283e-18
5.68565e-18
1.1856e-17
9.55222e-18
4.01632e-18
8.85325e-19
1.36343e-19
1.64554e-20
1.73525e-21
2.29366e-22
1.66269e-23
-1.50888e-22
-1.42418e-21
-3.41834e-21
-4.82321e-21
-4.73897e-21
-3.41035e-21
-1.58698e-21
4.11404e-22
2.76283e-20
-1.51264e-20
3.55784e-20
3.53283e-20
7.675e-20
2.87289e-19
5.69983e-19
4.43908e-19
1.78133e-19
3.80777e-20
5.70836e-21
6.71214e-22
6.52339e-23
1.858e-24
-9.36382e-23
-6.3514e-22
-1.8102e-21
-3.07445e-21
-3.54231e-21
-2.97448e-21
-1.87878e-21
-8.4939e-22
-1.24626e-22
5.25132e-21
-1.76133e-20
9.23278e-22
1.23646e-21
3.35265e-21
1.36084e-20
2.60708e-20
1.96252e-20
7.50815e-21
1.55393e-21
2.26287e-22
2.51606e-23
7.78198e-25
-1.85066e-23
-1.73977e-22
-6.43027e-22
-1.40028e-21
-1.9898e-21
-1.98812e-21
-1.46789e-21
-8.20626e-22
-3.39113e-22
-5.48051e-23
1.32715e-21
-1.15945e-20
2.31112e-38
1.36686e-23
3.03146e-23
5.26168e-22
1.10596e-21
8.17956e-22
2.99948e-22
6.00551e-23
8.40751e-24
4.61216e-25
-1.27669e-24
-3.04809e-23
-1.57792e-22
-4.58367e-22
-8.43797e-22
-1.04644e-21
-9.23888e-22
-6.04067e-22
-2.98082e-22
-1.08993e-22
-1.35798e-23
3.17652e-22
-5.99305e-21
-5.70435e-22
-2.53366e-22
-5.53526e-23
4.33581e-24
3.22315e-23
2.83239e-23
1.06024e-23
2.0586e-24
2.25592e-25
2.26057e-41
-3.42403e-24
-2.62413e-23
-1.07546e-22
-2.65812e-22
-4.28346e-22
-4.71083e-22
-3.69778e-22
-2.14008e-22
-9.25849e-23
-2.92976e-23
-2.74979e-24
5.28217e-23
-2.66743e-21
-4.40216e-22
-2.02464e-22
-1.21137e-22
-2.45665e-23
2.19558e-25
3.57913e-25
1.49661e-25
2.85729e-26
2.58528e-27
-3.0583e-25
-2.94516e-24
-1.75342e-23
-6.12025e-23
-1.32844e-22
-1.90372e-22
-1.86882e-22
-1.30498e-22
-6.65797e-23
-2.50328e-23
-6.72759e-24
-5.86617e-25
4.95836e-24
-1.06532e-21
-2.15599e-22
-9.19259e-23
-5.98887e-23
-2.47924e-23
-6.04674e-24
-9.86781e-25
-1.3098e-25
-2.2369e-26
-2.84731e-26
-2.72679e-25
-1.96016e-24
-9.88744e-24
-3.03452e-23
-5.88277e-23
-7.56714e-23
-6.65831e-23
-4.13785e-23
-1.85637e-23
-6.03291e-24
-1.36047e-24
-1.12366e-25
2.59815e-25
-3.90171e-22
-8.60935e-23
-3.34204e-23
-2.19261e-23
-9.93536e-24
-3.123e-24
-7.64713e-25
-1.54197e-25
-2.75001e-26
-2.39336e-26
-1.8211e-25
-1.12796e-24
-4.98136e-24
-1.36464e-23
-2.3759e-23
-2.74027e-23
-2.14435e-23
-1.16874e-23
-4.50911e-24
-1.22545e-24
-2.18423e-25
-1.284e-26
5.63467e-27
0.999814
0.998873
0.998452
0.998365
0.754902
0.902835
0.974896
0.971
0.709288
0.907257
0.939028
0.955848
0.930933
0.937281
0.957466
0.964432
0.594585
0.956922
0.961254
0.962986
0.0837927
0.708049
0.959247
0.961254
0.0129752
0.0831636
0.618487
0.907017
0.0345038
0.0660171
0.261143
0.602677
0.253373
0.255692
0.214142
0.213663
0.257335
0.257632
0.257335
0.257335
0.108678
0.223667
0.251412
0.178721
0.000182459
0.000241745
0.000210529
0.000196038
0.000317627
0.000215192
0.000196039
0.000189021
0.000921228
0.00091308
0.000284608
0.000225892
0.000918024
0.000913247
0.000794963
0.000777991
0.00089567
0.000372974
1.85206e-05
5.66619e-05
6.05095e-05
0.0001219
1.58556e-05
1.64081e-07
2.89636e-08
5.43392e-08
2.2534e-05
1.20068e-05
4.08921e-08
3.30966e-12
1.99943e-09
3.44192e-12
3.02345e-12
3.22272e-12
3.30129e-12
3.34758e-12
2.96193e-12
3.33031e-12
3.8581e-12
4.50265e-12
2.90896e-12
2.97853e-12
3.32202e-12
4.14056e-12
7.76785e-13
8.21574e-13
9.96711e-13
1.58388e-12
2.53216e-13
2.41737e-13
2.51659e-13
2.92591e-13
8.45791e-14
8.83932e-14
9.70869e-14
1.21485e-13
3.17207e-14
3.47614e-14
4.23428e-14
5.74954e-14
7.36298e-15
9.13383e-15
1.12765e-14
1.23708e-14
8.01236e-16
9.30591e-16
1.0922e-15
1.31639e-15
6.79752e-17
1.23846e-16
2.55817e-16
4.80354e-16
4.03192e-17
8.52349e-17
1.92358e-16
3.68894e-16
2.83528e-17
5.75858e-17
1.23527e-16
2.13791e-16
1.31751e-17
2.53629e-17
5.11455e-17
8.16242e-17
3.53462e-18
6.55806e-18
1.26892e-17
1.94173e-17
5.66687e-19
1.05951e-18
2.06228e-18
3.1534e-18
8.13552e-20
1.57219e-19
3.15043e-19
4.92586e-19
1.61006e-20
3.12962e-20
6.13946e-20
9.66929e-20
3.97513e-21
7.27566e-21
1.34526e-20
2.31084e-20
8.64527e-22
1.40327e-21
3.03077e-21
7.18791e-21
1.22099e-22
1.95675e-22
6.73229e-22
1.97735e-21
1.00587e-23
2.0663e-23
8.73338e-23
5.54739e-22
5.14507e-25
1.50659e-24
1.13772e-23
6.72353e-22
1.15168e-26
4.79971e-26
1.49544e-24
4.60109e-22
0.994698
0.994354
0.990347
0.850454
0.742511
0.0569308
0.0531705
0.176781
0.28431
0.137348
0.217124
0.584982
0.600985
0.170986
0.0323699
0.00642763
0.00232666
0.0897334
0.409533
0.994534
0.993341
0.803215
0.849359
0.466975
0.0661176
0.166979
0.319583
0.319583
0.319583
0.163281
0.0013281
0.0120228
0.000592875
0.000390161
0.00108363
0.00139644
0.00232671
0.00462578
0.966611
0.856619
0.802451
0.698336
0.148191
0.065288
0.208784
0.22165
0.141637
0.102892
0.0153604
0.000338488
0.000276708
0.000231059
0.000264863
0.00040027
0.000882494
0.00369545
0.0102142
0.966269
0.918856
0.669764
0.181544
0.00422366
0.063273
0.0830831
0.00213116
0.000819114
0.000712134
0.000336571
0.000235338
0.000226006
0.000227458
0.000232917
0.000264795
0.030698
0.0620443
0.03384
0.963965
0.859102
0.295363
0.00199866
0.000739133
0.0125132
0.000748105
0.00030306
0.000263013
0.000261367
0.000234562
0.000225836
0.000226108
0.000225712
0.000227262
0.0114602
0.116784
0.109323
0.00221995
0.954938
0.559098
0.00533214
0.000458595
0.000303832
0.000375094
0.000293781
0.000224797
0.000212253
0.000210093
0.000219847
0.00022678
0.000225907
0.000226962
0.000239675
0.095635
0.116933
0.0576104
0.000873969
0.930955
0.503948
0.000458596
0.000268513
0.000249038
0.000245216
0.0002253
0.000210198
0.000206729
0.000205881
0.000214608
0.000350846
0.000226962
0.000236975
0.00733724
0.116933
0.116933
0.0288711
0.000227688
0.779514
0.683962
0.228427
0.000248286
0.000246434
0.000225415
0.000210199
0.000206729
0.000205881
0.000205781
0.000445168
0.000448768
0.000242736
0.000272272
0.0860447
0.115995
0.116933
0.0103083
1.79255e-05
0.394339
0.686456
0.671713
0.337319
0.00570915
0.000212808
0.000207076
0.000205915
0.000205739
0.000205781
0.000222885
0.000250278
0.000272249
0.000408598
0.113933
0.115056
0.0358615
1.78325e-05
4.62032e-06
0.200494
0.323335
0.550811
0.575897
0.399896
0.000481872
0.000210506
0.000206324
0.000205781
0.000205739
0.000205781
0.000223786
0.000372827
0.0299446
0.121169
0.0799721
3.18339e-05
4.62022e-06
4.34947e-06
0.15304
0.328293
0.46722
0.582268
0.586523
0.49479
0.0187154
0.000210504
0.000206324
0.00020578
0.000213672
0.000362408
0.00326903
0.217302
0.123449
5.90473e-05
5.05888e-06
4.22088e-06
4.31747e-06
0.0147778
0.288789
0.500641
0.586523
0.586523
0.586523
0.506053
0.285177
0.157154
0.0875588
0.0588779
0.0845354
0.319988
0.311462
0.0515607
6.9098e-05
4.51772e-06
4.1585e-06
4.19163e-06
0.000105844
7.44905e-06
1.6606e-05
0.183167
0.521364
0.584853
0.581838
0.580492
0.576723
0.56479
0.538035
0.531473
0.517508
0.216085
0.000110111
2.39567e-06
2.15872e-06
3.41048e-06
4.07284e-06
0.000204884
3.88048e-06
2.53291e-07
1.92066e-07
1.96216e-07
0.246883
0.491812
0.521019
0.450217
0.459535
0.473124
0.401567
0.0913454
-1.31317e-06
-7.3705e-10
-4.2728e-08
1.9503e-06
2.15087e-06
3.22339e-06
0.000753287
3.06497e-05
1.92066e-07
1.84753e-07
1.91447e-07
6.4764e-08
2.84374e-09
1.95199e-10
0.000516106
0.0380111
0.0193556
-1.45529e-12
-4.29681e-12
-8.45915e-11
2.89845e-09
3.59579e-09
1.81498e-06
2.21849e-06
2.7876e-05
0.000192811
0.000116633
1.99493e-06
1.66292e-07
2.84333e-07
1.03078e-07
1.95199e-10
4.31687e-11
2.79207e-11
1.23633e-11
3.18146e-27
-1.52067e-10
-3.83703e-10
-9.4276e-11
4.73812e-09
3.79583e-09
1.31781e-05
0.000222225
0.000185341
9.25532e-08
2.46581e-05
6.20218e-06
4.44491e-08
1.42475e-07
2.19348e-07
1.1341e-07
8.05316e-10
2.23684e-10
3.75594e-10
4.85887e-10
6.20659e-10
3.56998e-10
6.36293e-27
2.543e-08
1.51209e-08
5.77936e-05
0.00064084
0.000156934
1.15442e-11
1.20507e-11
1.21928e-11
4.38006e-08
1.27253e-11
2.9588e-08
2.60297e-08
5.58161e-09
8.54662e-10
6.15503e-10
7.29868e-10
7.84823e-10
3.89786e-10
1.24185e-09
9.23843e-09
6.7414e-09
0.000119038
0.000642617
2.79366e-06
5.87166e-12
1.1353e-11
1.20465e-11
1.21928e-11
1.23137e-11
1.27253e-11
1.44582e-11
2.4094e-09
1.78284e-09
6.70598e-10
6.71035e-10
7.4862e-10
6.02446e-10
4.21693e-10
4.21568e-10
4.20392e-10
0.000151123
0.000638831
1.26976e-06
7.56325e-12
2.86525e-11
2.60233e-11
2.45966e-11
4.25808e-11
9.91846e-11
1.18145e-10
1.69395e-10
3.19629e-10
4.29038e-10
5.23798e-10
5.96157e-10
6.11087e-10
4.72867e-10
4.20758e-10
4.2085e-10
0.000146939
0.000427807
1.26976e-06
1.675e-11
3.52314e-11
3.52314e-11
3.40711e-11
5.37449e-11
1.37922e-10
3.59311e-10
5.59555e-10
5.84748e-10
5.71178e-10
5.48707e-10
5.73992e-10
7.84798e-10
7.01772e-10
4.2085e-10
4.20832e-10
0.000161071
1.30406e-06
1.28458e-06
9.29854e-12
2.27272e-11
2.01464e-11
1.86551e-11
3.97906e-11
1.33662e-10
5.12857e-10
6.77442e-10
5.9355e-10
5.70162e-10
5.54046e-10
9.79019e-10
1.43468e-09
1.11381e-09
4.36898e-10
4.2976e-10
0.000265419
2.71513e-05
1.20851e-06
2.05001e-12
2.50209e-12
3.71503e-12
1.15002e-11
4.18502e-11
1.84403e-10
5.35214e-10
5.35014e-10
6.66037e-10
6.90229e-10
2.83429e-09
4.03541e-09
2.29542e-09
1.22289e-09
4.47011e-10
4.27388e-10
0.00026548
7.48793e-05
5.82328e-07
6.35578e-13
1.14205e-12
2.96396e-12
2.11547e-11
7.67604e-11
2.26728e-10
1.8902e-10
1.99975e-10
2.55281e-09
5.35326e-08
4.33322e-08
9.04291e-09
1.47424e-09
7.72227e-10
4.49526e-10
4.23965e-10
0.000241261
4.5747e-05
1.62753e-07
2.23666e-13
3.91373e-13
2.73845e-12
3.17768e-11
9.76555e-11
2.04148e-10
1.23544e-11
6.51473e-09
1.36309e-06
6.86531e-07
5.76019e-08
7.71475e-10
7.44681e-10
5.57715e-10
4.55094e-10
4.32181e-10
4.49742e-10
3.55681e-08
1.60235e-07
7.36306e-14
1.76814e-13
3.03607e-12
3.98984e-11
1.03601e-10
9.0306e-11
1.18093e-11
2.09251e-06
4.23113e-06
8.12383e-07
1.26246e-09
1.00814e-09
7.96224e-10
5.12836e-10
4.5956e-10
3.45677e-06
8.40087e-07
2.2076e-07
8.42152e-08
1.47527e-14
1.32208e-13
2.87203e-12
3.60438e-11
8.65952e-11
5.082e-11
1.16233e-11
4.23073e-06
4.23255e-06
1.23823e-07
4.41684e-09
9.61395e-09
9.25119e-10
9.30771e-07
1.21965e-05
1.63303e-05
1.16537e-05
4.44512e-06
4.31801e-08
3.91117e-15
1.35819e-13
2.25614e-12
2.41395e-11
5.42799e-11
3.38257e-11
1.15773e-11
4.23126e-06
4.07479e-06
1.45266e-08
5.32746e-09
7.58905e-08
7.42285e-06
1.43572e-05
1.45615e-05
1.48958e-05
1.48118e-05
5.91726e-06
7.30146e-09
2.64021e-15
1.24562e-13
2.14389e-12
1.89995e-11
4.02905e-11
2.67619e-11
1.15206e-11
3.77612e-06
4.22173e-06
7.20844e-07
1.45266e-08
1.67132e-06
6.66585e-06
5.17868e-06
1.95976e-06
3.56771e-06
1.47757e-05
1.46204e-06
1.81646e-09
1.88804e-15
1.28647e-13
1.94194e-12
1.54191e-11
3.27151e-11
2.36764e-11
1.14777e-11
2.87612e-07
4.22534e-06
4.55319e-06
1.51927e-06
8.46946e-07
7.43655e-07
7.82131e-08
1.91567e-06
1.14304e-05
9.32573e-06
2.68644e-07
6.27965e-10
1.70997e-15
1.35079e-13
1.68342e-12
1.00896e-11
2.36311e-11
2.20126e-11
1.14471e-11
5.6636e-12
2.31202e-06
4.57762e-06
4.57762e-06
2.84088e-06
4.62162e-07
6.66155e-08
9.73707e-06
1.14304e-05
4.29261e-06
7.72187e-09
3.83095e-10
1.70839e-15
9.43371e-14
9.16239e-13
4.43831e-12
1.12585e-11
1.46262e-11
1.1299e-11
5.65059e-12
5.6636e-12
2.42409e-06
4.57762e-06
4.55128e-06
2.12303e-06
3.26855e-08
1.02443e-05
1.14304e-05
3.40101e-06
3.26039e-10
1.8368e-10
1.14378e-15
3.92838e-14
2.97165e-13
1.21081e-12
3.72428e-12
8.36476e-12
9.55561e-12
5.78358e-12
5.65019e-12
6.50441e-12
1.02939e-06
3.85876e-06
1.62719e-06
5.68363e-09
2.69928e-06
1.08194e-05
2.02395e-06
1.18582e-10
4.65335e-11
3.11858e-16
9.8183e-15
5.57527e-14
2.74205e-13
1.59858e-12
5.40286e-12
7.20711e-12
3.51121e-12
5.48726e-11
9.5997e-10
7.10041e-10
7.23637e-10
7.1004e-10
8.61904e-10
1.53931e-06
8.42654e-08
6.09094e-08
2.40939e-10
3.94327e-11
3.45481e-17
1.23411e-15
7.97163e-15
1.32555e-13
1.18928e-12
3.70754e-12
3.63446e-12
1.67968e-15
1.05695e-09
1.104e-08
6.53789e-09
9.76744e-10
8.61904e-10
1.75288e-07
7.64838e-07
9.3836e-09
3.57615e-11
3.36996e-11
3.87769e-11
5.67329e-18
1.88395e-16
2.46959e-15
1.00274e-13
8.2382e-13
1.37391e-12
8.46802e-13
1.94181e-31
3.29501e-09
1.57445e-08
1.41307e-08
1.06995e-09
1.69591e-07
3.79485e-06
1.82119e-06
1.01728e-07
2.27771e-11
2.34915e-11
2.29443e-11
2.86949e-18
5.57345e-17
1.08882e-15
4.40768e-14
2.22888e-13
2.0342e-13
-1.37963e-14
-2.45397e-13
2.59549e-09
1.57222e-08
6.82469e-09
1.30727e-09
3.5104e-06
4.45336e-06
2.06441e-06
5.95413e-11
6.07149e-12
3.51596e-11
6.79478e-12
1.39748e-18
1.31884e-17
2.31668e-16
8.32426e-15
1.97258e-14
1.65053e-15
-1.53137e-13
-3.05781e-13
1.58227e-10
4.34539e-09
3.18146e-27
7.61166e-08
4.42514e-06
4.39562e-06
4.92332e-07
1.61351e-12
7.81529e-15
8.49586e-12
1.1047e-12
4.34904e-19
1.75608e-18
1.49784e-17
5.06505e-16
-8.74589e-16
-1.05585e-14
-1.32452e-13
-2.02205e-13
-7.15673e-14
-1.14839e-14
-1.19384e-15
2.49453e-07
4.42608e-06
4.55597e-07
1.61349e-12
7.73283e-15
2.22392e-15
2.10488e-13
5.55653e-14
7.40216e-20
1.26213e-19
2.85677e-19
2.41984e-18
-1.5918e-15
-6.49624e-15
-6.53934e-14
-7.89392e-14
-3.35719e-14
-7.29038e-15
-9.09436e-16
1.16942e-07
3.62577e-06
2.28148e-11
1.26255e-11
3.8567e-14
1.93595e-15
5.89179e-15
2.79686e-15
5.72795e-21
4.32798e-21
5.3635e-21
-3.5183e-19
-8.51931e-16
-2.36721e-15
-1.62894e-14
-1.32959e-14
-4.48304e-15
-8.35705e-16
-9.15006e-17
3.83851e-09
3.054e-21
6.09355e-08
6.64366e-10
4.8379e-31
7.61889e-20
9.79704e-35
-4.71035e-38
2.44056e-22
7.01327e-23
1.63747e-23
-2.39435e-19
-2.17526e-16
-4.3549e-16
-1.29103e-15
-4.02791e-16
-6.54193e-17
-8.9998e-18
-9.20337e-19
-1.39806e-20
-2.44076e-23
-5.29621e-18
-1.10612e-18
-3.87622e-20
-6.4015e-22
-5.34359e-24
-1.40987e-26
)
;

boundaryField
{
    leftWall
    {
        type            zeroGradient;
    }
    rightWall
    {
        type            zeroGradient;
    }
    lowerWall
    {
        type            zeroGradient;
    }
    atmosphere
    {
        type            inletOutlet;
        inletValue      uniform 0;
        value           nonuniform List<scalar> 
46
(
-3.90171e-22
-8.60935e-23
-3.34204e-23
-2.19261e-23
-9.93536e-24
-3.123e-24
-7.64713e-25
-1.54197e-25
-2.75001e-26
-2.39336e-26
-1.8211e-25
-1.12796e-24
-4.98136e-24
-1.36464e-23
-2.3759e-23
-2.74027e-23
-2.14435e-23
-1.16874e-23
-4.50911e-24
-1.22545e-24
-2.18423e-25
-1.284e-26
5.63467e-27
0
0
0
0
0
0
0
0
0
0
0
0
0
0
0
0
0
0
0
0
0
0
0
)
;
    }
    defaultFaces
    {
        type            empty;
    }
}


// ************************************************************************* //
