/*--------------------------------*- C++ -*----------------------------------*\
| =========                 |                                                 |
| \\      /  F ield         | OpenFOAM: The Open Source CFD Toolbox           |
|  \\    /   O peration     | Version:  2206                                  |
|   \\  /    A nd           | Website:  www.openfoam.com                      |
|    \\/     M anipulation  |                                                 |
\*---------------------------------------------------------------------------*/
FoamFile
{
    version     2.0;
    format      ascii;
    arch        "LSB;label=32;scalar=64";
    class       volScalarField;
    location    "0.9";
    object      p_rgh;
}
// * * * * * * * * * * * * * * * * * * * * * * * * * * * * * * * * * * * * * //

dimensions      [1 -1 -2 0 0 0 0];

internalField   nonuniform List<scalar> 
2268
(
1009.72
997.217
977.841
952.734
925.167
895.565
863.588
830.482
799.156
772.567
752.796
740.59
735.657
736.556
739.289
740.49
741.458
741.436
741.725
744.898
747.012
748.812
748.822
1013.54
1000.05
978.733
952.027
924.112
895.471
863.598
830.01
798.128
771.145
751.185
738.998
734.271
735.892
739.427
740.987
739.741
736.383
737.139
741.451
742.511
745.668
747.461
1017.07
1002.73
979.472
951.076
923.75
895.659
863.613
829.078
795.971
768.044
747.657
735.555
731.353
734.073
741.335
744.111
739.955
735.961
737.458
741.179
741.792
743.033
745.717
1021.12
1005.31
980.351
950.194
922.85
895.987
863.856
827.822
792.743
763.394
742.34
730.334
726.829
730.902
740.489
750.344
751.558
749.046
747.598
743.314
739.963
739.335
744.071
1026.14
1008.29
981.882
949.949
922.804
897.353
864.818
826.409
788.337
756.918
735.038
723.268
720.677
726.618
739.172
753.183
761.098
758.799
750.362
740.137
734.641
734.99
742.98
1033.37
1012.36
984.7
951.381
924.57
900.544
866.859
825.017
782.67
748.557
725.563
714.196
712.716
721.089
737.738
756.664
768.557
766.202
751.678
734.6
727.149
729.678
742.66
1043.79
1018.07
989.343
955.519
929.286
905.791
870.226
823.766
775.29
738.36
716.802
702.576
702.295
713.598
735.72
761.073
778.035
774.634
751.65
726.673
716.481
722.796
742.625
1057.1
1026.61
995.801
962.811
935.536
912.863
874.794
822.606
764.408
723.058
703.531
688.48
689.377
704.092
733.765
768.11
792.048
789.141
757.682
717.869
700.667
714.475
744.256
650.765
597.957
579.509
607.365
580.556
493.715
481.841
530.295
540.709
483.07
391.633
358.216
381.924
431.519
459.917
474.528
507.622
531.367
518.84
655.872
588.584
560.246
587.542
561.28
468.101
460.945
520.039
526.761
473.451
386.77
348.642
375.17
417.832
455.38
465.214
499.006
519.717
506.63
657.126
570.83
524.623
561.617
560.908
472.886
435.228
468.628
505.866
479.98
378.187
346.814
368.657
417.06
439.484
440.127
481.204
489.377
453.09
653.924
557.19
508.373
570.342
574.526
494.294
359.425
345.492
480.229
445.289
374.305
346.82
365.661
409.966
415.274
445.053
448.071
438.917
430.802
652.272
528.664
496.084
560.568
590.606
445.621
230.886
218.526
309.996
368.236
373.929
365.949
371.465
403.936
451.156
478.559
459.363
459.813
430.225
659.439
502.648
494.672
541.018
595.702
382.173
199.323
157.466
126.456
206.151
374.109
402.959
396.074
403.89
434.508
459.772
536.249
530.592
513.903
676.031
521.037
572.228
549.048
588.711
313.076
188.322
151.835
115.29
116.798
225.053
434.648
425.68
383.602
372.227
424.827
498.022
519.091
481.761
693.948
618.442
607.652
575.032
573.455
243.861
183.342
159.698
124.074
120.981
175.762
430.824
417.473
384.265
332.29
206.349
198.472
393.299
482.941
1082.17
1042.14
1010.34
983.647
959.564
931.735
888.402
822.066
728.184
627.227
583.743
574.079
593.393
633.105
697.638
766.505
816.331
819.157
724.838
570.65
495.444
589.321
749.217
1085.28
1045.55
1033.15
982.349
927.594
936.77
916.799
782.176
280.619
121.639
124.023
129.188
134.708
181.986
355.192
583.597
657.407
530.077
316.12
179.044
154.623
184.897
427.498
1001.06
890.678
964.399
1008.01
953.066
865.943
403.683
157.791
110.327
91.6449
87.1377
84.4358
80.4532
95.3217
179.515
219.083
237.724
222.25
171.211
145.673
147.603
163.01
236.021
1136.21
1062.15
1028.95
955.053
436.019
191.659
141.621
159.548
165.078
158.506
83.6993
79.261
77.4387
72.8089
70.7421
83.1048
147.479
173.279
157.051
138.473
209.257
646.898
902.425
1444.01
1155.54
586.169
136.098
8.39233
6.70579
63.1429
126.825
126.738
127.923
151.426
162.615
162.099
139.027
91.6055
214.85
251.01
242.887
220.632
373.211
552.194
543.298
423.315
1324.25
437.226
37.1992
4.2087
-0.0132174
-1.0902
-1.24906
-1.71641
-1.40345
-1.32064
32.6907
123.256
139.146
135.961
69.8857
25.0724
109.03
239.726
203.957
21.2103
14.8265
17.0083
21.8485
915.876
28.6661
5.78636
0.292152
-1.29009
-1.96387
-2.2696
-2.33482
-2.35079
-2.27755
-2.23374
-2.2037
-2.19201
-2.04019
-1.36529
-0.300326
0.882505
59.2427
187.261
25.6198
14.1533
14.2419
15.7007
706.067
1.40435
-0.535753
-1.63009
-2.08147
-2.41219
-2.6408
-2.73932
-2.72005
-2.60123
-2.50333
-2.4039
-2.23718
-1.96602
-1.65286
-1.41819
-0.969118
22.4708
81.6578
74.3258
13.6067
13.163
15.5534
774.86
-2.63653
-2.49245
-2.72485
-2.74427
-2.85903
-2.94545
-2.96696
-2.90587
-2.79667
-2.68547
-2.5742
-2.44804
-2.27539
-2.07752
-1.94532
-1.8086
-0.0494887
48.4898
79.8003
15.4245
11.5749
101.169
830.47
-5.26983
-3.29924
-3.23331
-3.02457
-3.02375
-3.02868
-3.01327
-2.95373
-2.86
-2.75605
-2.64919
-2.54222
-2.43677
-2.32825
-2.2269
-2.12599
-1.89727
7.11031
41.4991
32.5956
10.9071
215.394
646.162
2.93494
-3.41275
-3.19968
-2.91165
-2.93663
-2.95675
-2.97612
-2.95033
-2.88455
-2.79297
-2.68833
-2.58726
-2.49785
-2.40804
-2.27677
-2.1692
-1.98643
-1.84466
4.86752
14.0716
3.7356
4.27869
60.9804
2.34848
-1.40777
-2.41987
-2.58029
-2.81033
-2.93937
-3.01159
-3.00628
-2.93653
-2.8273
-2.70691
-2.59068
-2.49157
-2.41107
-2.23023
-1.91256
-1.7714
-1.71782
-1.63714
-1.5059
-1.25649
-1.10803
1.88047
0.788114
-0.811418
-1.98102
-2.47586
-2.93366
-3.1935
-3.29537
-3.24638
-3.10194
-2.92066
-2.74248
-2.58453
-2.45298
-2.34688
-2.25715
-2.04269
-1.70594
-1.67443
-1.57331
-1.4496
-0.860152
-0.169796
0.763882
-0.0859895
-1.04098
-2.14278
-2.84457
-3.51814
-3.89585
-3.96128
-3.7634
-3.43752
-3.1033
-2.81669
-2.58604
-2.40612
-2.271
-2.1591
-2.06061
-1.75115
-1.28249
-1.12922
-0.871928
0.412597
0.62671
0.759591
-0.725653
-1.52496
-2.69935
-3.66139
-4.60102
-5.12028
-5.10204
-4.63889
-3.9868
-3.38423
-2.92454
-2.59228
-2.35522
-2.18308
-2.05077
-1.9457
-1.85875
-1.70009
-1.03019
-0.0923376
0.582088
0.811407
1.05164
-0.468014
-1.96445
-3.41224
-4.75755
-6.0573
-6.78828
-6.69216
-5.87996
-4.72637
-3.71451
-3.02491
-2.57433
-2.28262
-2.07871
-1.9301
-1.81568
-1.72358
-1.64603
-1.5734
-1.43356
-1.07642
0.642695
0.789493
0.094781
-2.25667
-4.10323
-5.8918
-7.55794
-8.5231
-8.29698
-6.99738
-5.35261
-3.90273
-3.04301
-2.48942
-2.1582
-1.94255
-1.79037
-1.67495
-1.58084
-1.49849
-1.42072
-1.3345
-1.22544
-1.096
0.125544
-0.172179
-2.03133
-4.47928
-6.58853
-8.47159
-9.53734
-8.54393
-6.73533
-5.11811
-3.77158
-2.81183
-2.27405
-1.96224
-1.76417
-1.62577
-1.5202
-1.43229
-1.35225
-1.27261
-1.18719
-1.08991
-0.978101
-0.682815
-0.968042
-1.75665
-3.69769
-6.12464
-7.89678
-8.42911
-7.38257
-5.75101
-3.88378
-3.13424
-2.35554
-1.93694
-1.69848
-1.54614
-1.43768
-1.35214
-1.27784
-1.20728
-1.13496
-1.05673
-0.968934
-0.873811
-1.3288
-1.56863
-1.82898
-2.45811
-3.63423
-4.75757
-4.86549
-4.46553
-3.38443
-2.43971
-2.21195
-1.76295
-1.52701
-1.39351
-1.30409
-1.23542
-1.17645
-1.12074
-1.06411
-1.00351
-0.936986
-0.863619
-0.784209
-1.63718
-1.96884
-2.39584
-1.86278
-1.58831
-1.54844
-1.55325
-1.39317
-0.961834
-1.25709
-1.32022
-1.18428
-1.12216
-1.08882
-1.06125
-1.03299
-1.00194
-0.966567
-0.925799
-0.878836
-0.825362
-0.765729
-0.701325
-1.63294
-1.99293
-2.32708
-1.99768
-0.554848
0.121671
0.484587
0.587576
0.132455
-0.567987
-0.66537
-0.731298
-0.782628
-0.819229
-0.838715
-0.843856
-0.837428
-0.821058
-0.79581
-0.762468
-0.721866
-0.675117
-0.623859
-1.40989
-1.61089
-1.82871
-1.68317
-0.759069
0.641992
1.22988
0.840788
0.15138
-0.105556
-0.293022
-0.424072
-0.52627
-0.60008
-0.648651
-0.677031
-0.68938
-0.68862
-0.676876
-0.655805
-0.626895
-0.591656
-0.551783
-1.09734
-1.17627
-1.23261
-1.0635
-0.617532
0.0224797
0.385271
0.388238
0.266269
0.0885693
-0.0848705
-0.230009
-0.344985
-0.431808
-0.494237
-0.536285
-0.561102
-0.571759
-0.57067
-0.559783
-0.540823
-0.515416
-0.485184
-0.815782
-0.81928
-0.77413
-0.599965
-0.296611
0.0463426
0.27119
0.331439
0.269182
0.147088
0.0102717
-0.116247
-0.223361
-0.309133
-0.373228
-0.421494
-0.453195
-0.471209
-0.477777
-0.474742
-0.463768
-0.446398
-0.424094
-0.605794
-0.585142
-0.51274
-0.361376
-0.146284
0.0671602
0.210099
0.258716
0.227374
0.146991
0.0468913
-0.0536311
-0.144675
-0.22206
-0.284996
-0.330784
-0.364534
-0.386399
-0.397879
-0.400476
-0.395589
-0.384547
-0.368611
-0.452955
-0.429256
-0.36355
-0.250333
-0.0868945
0.0506921
0.14861
0.189108
0.175986
0.125333
0.054901
-0.0214835
-0.0949603
-0.160589
-0.21599
-0.259918
-0.292711
-0.315847
-0.330069
-0.336391
-0.335896
-0.329661
-0.318724
-0.338021
-0.316032
-0.263404
-0.174632
-0.0681632
0.0285895
0.0989803
0.132603
0.12983
0.0987476
0.050059
-0.00660452
-0.0641379
-0.117893
-0.165103
-0.204286
-0.235035
-0.25778
-0.273103
-0.281614
-0.284099
-0.281379
-0.274269
-0.250585
-0.231698
-0.190941
-0.127685
-0.0547399
0.0128438
0.0637579
0.0908391
0.0929416
0.0740475
0.0405869
-0.00095258
-0.0452254
-0.0883062
-0.127557
-0.161381
-0.189021
-0.210266
-0.225561
-0.235116
-0.239459
-0.239199
-0.234954
-0.185071
-0.169493
-0.1393
-0.0947627
-0.0442797
0.00314817
0.0400157
0.0611464
0.0650279
0.0535456
0.0305047
0.000176746
-0.0335682
-0.0676166
-0.0996777
-0.128218
-0.152348
-0.171684
-0.186049
-0.195788
-0.201154
-0.202536
-0.20038
-0.136073
-0.123881
-0.101853
-0.0707313
-0.0356867
-0.00225989
0.0243864
0.0404853
0.0446104
0.03757
0.0215841
-0.000576645
-0.0261804
-0.0528535
-0.078715
-0.102398
-0.123003
-0.140011
-0.153152
-0.16256
-0.168359
-0.170765
-0.170086
-0.0997734
-0.0902934
-0.0745026
-0.0528679
-0.0284765
-0.00486675
0.014329
0.0263702
0.0300572
0.0256566
0.0144403
-0.00181506
-0.0212142
-0.0419949
-0.0626684
-0.0820758
-0.0993869
-0.114062
-0.125799
-0.134499
-0.140289
-0.143248
-0.143574
-0.0729227
-0.0656613
-0.0544716
-0.0394811
-0.0224656
-0.00576253
0.00802131
0.0169013
0.0199232
0.0170927
0.00912023
-0.00286586
-0.0175667
-0.0336977
-0.0501095
-0.0658539
-0.0802068
-0.09266
-0.102897
-0.110754
-0.116224
-0.119384
-0.120333
-0.0530913
-0.047612
-0.0397493
-0.0293929
-0.017497
-0.00566537
0.00420425
0.0106839
0.0130368
0.0111536
0.00541649
-0.00346466
-0.0146081
-0.0270886
-0.0400342
-0.0526891
-0.0644455
-0.0748514
-0.0836006
-0.090513
-0.0954945
-0.0986098
-0.0999009
-0.0384516
-0.0343701
-0.0288852
-0.0217548
-0.0134215
-0.00503305
0.00201748
0.00671029
0.00848519
0.00719371
0.00302905
-0.00356797
-0.0120028
-0.0216145
-0.0317501
-0.0418195
-0.0513273
-0.0598872
-0.0672206
-0.0731456
-0.077557
-0.0804728
-0.0819086
-0.0276434
-0.0246232
-0.0208307
-0.015948
-0.0101027
-0.00415462
0.000872092
0.0042549
0.00557179
0.0046729
0.00164414
-0.00324537
-0.00959672
-0.0169408
-0.0247949
-0.0327068
-0.0402831
-0.0472047
-0.0532309
-0.0581968
-0.0620084
-0.0646182
-0.0660704
-0.0196544
-0.017407
-0.0148241
-0.0115148
-0.00741787
-0.00320846
0.000366223
0.00279863
0.00377276
0.00315465
0.000970908
-0.00261771
-0.00734494
-0.0128811
-0.018875
-0.024987
-0.0309127
-0.0363967
-0.0412398
-0.0452999
-0.0484895
-0.0507661
-0.0521683
-0.013731
-0.0120228
-0.0103148
-0.00811389
-0.00525925
-0.00230172
0.000225657
0.00196946
0.00269478
0.0022906
0.000752592
-0.00182588
-0.00526917
-0.00934997
-0.0138185
-0.0184262
-0.0229441
-0.0271751
-0.0309614
-0.0341885
-0.0367843
-0.0387151
-0.0399958
-0.00929091
-0.00794774
-0.00689101
-0.00548076
-0.00352679
-0.00148912
0.000269629
0.00150538
0.0020472
0.00180931
0.000773481
-0.00100816
-0.00342301
-0.00631973
-0.00952681
-0.012869
-0.0161809
-0.0193171
-0.0221595
-0.0246208
-0.0266457
-0.0282077
-0.0293007
-0.0059383
-0.00485869
-0.00427837
-0.00343237
-0.00215597
-0.000821793
0.000349771
0.00119125
0.00158622
0.00147427
0.000833636
-0.000308437
-0.00188448
-0.00380028
-0.00594543
-0.00820432
-0.0104655
-0.0126294
-0.0146139
-0.0163579
-0.0178224
-0.0189842
-0.0198111
-0.00317462
-0.00234381
-0.00217503
-0.00176231
-0.00102559
-0.000260979
0.000423748
0.000923673
0.00117493
0.00114127
0.000804997
0.000178789
-0.000702836
-0.00178927
-0.00301905
-0.00432637
-0.00564652
-0.00692082
-0.00810044
-0.00914961
-0.0100481
-0.0107974
-0.0114413
-0.00143733
-0.000873453
-0.000739863
-0.000594815
-0.000358756
-0.000107884
0.000147846
0.000345044
0.000467942
0.000501774
0.00043677
0.000275161
2.51806e-05
-0.000298516
-0.000676873
-0.00108869
-0.00151231
-0.00192734
-0.002316
-0.00266451
-0.00296324
-0.00320851
-0.00340583
769.687
775.781
776.242
772.779
656.31
758.281
799.139
783.182
654.045
805.032
806.418
787.002
903.664
884.528
868.203
843.407
639.378
987.55
954.789
935.017
108.435
829.471
1092.07
1082.33
19.7776
106.999
785.894
1155.18
52.4426
98.744
369.777
852.815
391.257
396.615
336.608
344.356
433.486
437.493
442.58
451.012
198.042
410.275
461.427
328.11
-0.983494
-0.813705
-0.696053
-0.197443
-0.550912
-0.579054
-0.41915
-0.215165
0.868369
1.01609
-0.183789
-0.15755
1.0152
1.14395
0.985933
1.047
1.12346
-0.024486
-0.791144
-0.628913
-0.816301
-0.572231
-0.764814
-0.739315
-0.881166
-0.819007
-0.699313
-0.671147
-0.798933
-0.749921
-0.702233
-0.656687
-0.722643
-0.683221
-0.645006
-0.608239
-0.651732
-0.6199
-0.588848
-0.558801
-0.584149
-0.558556
-0.533342
-0.508662
-0.520285
-0.49982
-0.479424
-0.45922
-0.460556
-0.444344
-0.427936
-0.411424
-0.405094
-0.392361
-0.379238
-0.365807
-0.354182
-0.344303
-0.333912
-0.323077
-0.307975
-0.300415
-0.292278
-0.283616
-0.266428
-0.260734
-0.254444
-0.247599
-0.22939
-0.225183
-0.2204
-0.215067
-0.196574
-0.193545
-0.189977
-0.18589
-0.167615
-0.165503
-0.1629
-0.159822
-0.142092
-0.140674
-0.138819
-0.136541
-0.119556
-0.118652
-0.117367
-0.11571
-0.0996114
-0.0990807
-0.0982225
-0.0970445
-0.0819423
-0.0816784
-0.0811436
-0.0803403
-0.0663217
-0.0662548
-0.0659702
-0.0654674
-0.0525686
-0.0526491
-0.0525606
-0.0523015
-0.0404869
-0.0406726
-0.0407317
-0.0406643
-0.0298254
-0.0300756
-0.0302389
-0.0303162
-0.020324
-0.0205951
-0.0208165
-0.0209926
-0.0117256
-0.0119302
-0.0121515
-0.0123865
-0.00360553
-0.00377163
-0.00399795
-0.00428729
751.259
691.904
664.769
597.608
505.513
147.494
177.8
235.843
243.568
162.798
194.657
356.036
352.657
95.8896
20.7951
10.0364
23.3123
101.15
320.228
777.561
736.466
595.442
634.32
366.834
128.79
214.83
294.859
263.591
263.207
122.131
-1.69122
1.17331
-6.39531
-5.2553
-3.18851
2.4164
25.5773
55.2239
753.959
644.165
607.102
555.549
133.769
88.1405
201.884
187.882
108.163
74.7297
4.22781
-8.47226
-8.89118
-8.25901
-7.62066
-6.38371
-3.3492
10.9538
42.2556
807.013
758.301
568.305
159.229
3.42169
61.7548
75.9856
-2.21396
-7.19252
-9.50103
-9.98582
-10.4018
-9.96702
-8.85367
-8.12929
-7.58762
20.0261
56.6915
41.0427
927.393
853.295
297.601
-2.50656
-2.79551
9.20432
-4.65805
-6.1707
-7.3176
-8.5886
-9.86425
-10.6792
-10.3362
-9.25084
-8.57144
3.56793
113.624
111.448
5.92965
1094.53
663.334
3.46765
-2.76867
-3.25204
-3.88189
-5.37262
-6.99682
-8.0535
-8.79406
-9.63284
-10.2594
-10.0827
-9.35805
-8.88708
101.763
132.842
69.0137
5.42653
1216.85
670.317
1.39374
-2.06175
-2.74644
-3.74352
-5.34247
-7.13207
-8.43873
-9.03344
-9.34482
-9.46839
-9.53954
-9.16139
0.525588
143.001
150.656
41.3348
4.99322
1140.58
1036.81
320.596
-1.75988
-2.56278
-3.73135
-5.17765
-6.87988
-8.24785
-8.80075
-8.59153
-8.6096
-8.89451
-8.74188
112.444
160.479
167.25
18.3346
4.20202
659.815
1175.07
1101.85
495.914
4.42306
-4.34574
-5.24013
-6.35024
-7.42777
-8.05506
-8.1661
-8.09572
-8.00272
-7.02756
168.816
176.894
57.9016
3.03347
3.45263
376.581
613.648
1007.63
998.204
651.195
-3.91828
-5.25604
-5.77775
-6.40098
-6.87942
-7.14261
-7.19063
-6.60832
44.0464
198.044
134.922
2.20703
2.54568
2.82894
285.972
624.175
884.672
1082.72
1067.93
862.821
27.9781
-5.06789
-5.86609
-6.21736
-6.35167
-5.97458
0.690328
382.279
218.663
1.15223
2.0419
2.19447
2.39995
29.3463
567.853
982.484
1145.52
1140.14
1125.28
952.239
524.472
285.089
155.238
102.276
150.725
598.49
591.796
99.3626
1.75458
1.92805
2.00035
2.10474
-0.0696364
-0.509698
-0.138244
382.581
1078.79
1199.26
1204.48
1227.99
1215.37
1154.29
1088.5
1087.53
1070.75
446.541
1.58972
1.55017
1.72515
1.79088
1.85016
0.00176091
-0.448677
-0.398474
-0.509256
-0.507154
547.624
1091.98
1157.54
1002.6
1019.7
1050.24
892.205
203.203
0.689636
1.06784
1.28789
1.46041
1.57575
1.61049
1.1789
-0.379559
-0.437758
-0.487275
-0.463859
-0.502053
-0.578032
-0.536814
1.29754
89.1247
45.4188
0.184562
0.347452
0.595551
0.84399
1.08394
1.24499
1.39944
1.44948
-0.162337
-0.204
-0.457502
-0.453315
-0.448638
-0.486184
-0.44166
-0.337746
-0.176562
-0.0786851
0.0011972
0.124082
0.30387
0.523662
0.721936
0.908082
1.07237
1.74965
1.60427
-0.636743
-0.452669
-0.450723
-0.439064
-0.415237
-0.392825
-0.336643
-0.268157
-0.16654
-0.0741261
0.0244301
0.157194
0.294955
0.450775
0.601241
0.748303
0.982955
2.61345
1.30402
-0.616478
-0.517499
-0.458045
-0.420246
-0.387442
-0.352278
-0.298832
-0.228734
-0.143997
-0.0538312
0.0401905
0.144222
0.258432
0.38059
0.495534
0.603526
0.949935
2.43998
0.710351
-0.585297
-0.50303
-0.442418
-0.398249
-0.358014
-0.314166
-0.260226
-0.197146
-0.126762
-0.0505425
0.0323181
0.122955
0.21856
0.315207
0.401175
0.475572
0.871283
2.2544
0.541603
-0.549527
-0.478967
-0.42143
-0.374395
-0.330791
-0.284934
-0.233644
-0.176558
-0.11429
-0.0473902
0.0239826
0.0995115
0.177875
0.255089
0.31979
0.364856
0.754564
1.48161
0.40824
-0.51028
-0.449285
-0.396147
-0.349475
-0.305432
-0.260284
-0.212077
-0.160426
-0.105719
-0.0487271
0.0103565
0.0720924
0.136537
0.199732
0.251996
0.280227
0.743039
0.157713
0.324245
-0.468295
-0.415717
-0.367729
-0.323542
-0.281147
-0.238323
-0.19386
-0.147596
-0.100133
-0.0533416
-0.00746209
0.0402779
0.0927398
0.146869
0.19522
0.223951
1.06425
0.256949
0.274273
-0.425689
-0.380413
-0.337593
-0.2969
-0.257306
-0.217618
-0.177269
-0.136459
-0.0967138
-0.0621472
-0.0320282
0.000948578
0.0440336
0.0947475
0.145705
0.1856
1.08311
0.441557
0.261458
-0.383623
-0.344833
-0.306954
-0.270035
-0.23368
-0.19738
-0.161185
-0.125744
-0.0947664
-0.0753161
-0.0634929
-0.0445857
-0.00612524
0.0482006
0.109535
0.167112
1.02578
0.369615
0.262523
-0.342851
-0.309787
-0.276531
-0.243358
-0.210283
-0.177195
-0.144696
-0.113961
-0.0876414
-0.0868755
-0.0935513
-0.0849556
-0.0456022
0.0152443
0.0921517
0.178424
0.205975
0.22601
0.261957
-0.304246
-0.276194
-0.247151
-0.217506
-0.18749
-0.157144
-0.127415
-0.0920882
-0.0696603
-0.0889272
-0.101933
-0.100909
-0.0561023
0.0134578
0.101289
0.209943
0.212785
0.224931
0.246717
-0.268283
-0.244641
-0.219445
-0.193111
-0.16594
-0.137957
-0.110117
-0.0672655
-0.0537649
-0.0764694
-0.0859598
-0.0758945
-0.0341094
0.0338958
0.153647
0.242586
0.23646
0.219444
0.217315
-0.235245
-0.215494
-0.193848
-0.170711
-0.146355
-0.120742
-0.0945017
-0.0503553
-0.0341522
-0.0479288
-0.0485982
-0.0363187
0.0218924
0.0919572
0.144787
0.19418
0.215377
0.193993
0.183784
-0.205239
-0.188931
-0.170579
-0.15057
-0.129132
-0.106242
-0.0821211
-0.04077
-0.0179588
-0.0207146
-0.0183442
-0.00460556
0.0279344
0.0437834
0.0649435
0.111044
0.183311
0.147173
0.153994
-0.178184
-0.164892
-0.14956
-0.132551
-0.114087
-0.0942306
-0.0731015
-0.0495392
-0.0122916
0.00396696
-0.00170909
-0.00205278
0.0012833
0.0120882
0.0464987
0.119496
0.138411
0.119673
0.130114
-0.15387
-0.143173
-0.130532
-0.116286
-0.10067
-0.0838492
-0.0660771
-0.0477892
-0.0204896
0.0031759
0.0103078
0.00508179
-0.0010286
0.00975746
0.0741038
0.10933
0.103459
0.102092
0.111381
-0.132006
-0.123491
-0.11318
-0.101383
-0.0883412
-0.074273
-0.0595009
-0.0445754
-0.0304844
-0.00794752
0.00976377
0.0146371
0.0101644
0.0136445
0.0782846
0.106346
0.0909142
0.089263
0.0958928
-0.1123
-0.105591
-0.0972605
-0.0875931
-0.0768153
-0.0651461
-0.0528622
-0.0403959
-0.028351
-0.0177163
-0.00444527
0.0153436
0.0130586
0.0178059
0.0466012
0.101554
0.0770323
0.0776075
0.0819146
-0.0945242
-0.0893061
-0.082664
-0.0748523
-0.0660627
-0.0564868
-0.0463142
-0.0357961
-0.025308
-0.0157558
-0.00753576
-0.00020194
0.00751462
0.0184759
0.0400608
0.0478471
0.0591834
0.0657597
0.0684783
-0.0785357
-0.0745689
-0.0693966
-0.0632275
-0.056206
-0.0484888
-0.0402087
-0.0314602
-0.0225103
-0.0144034
-0.00723288
-0.000473522
0.00597417
0.016477
0.0320277
0.0404069
0.0485642
0.0533742
0.0552026
-0.0642512
-0.0613574
-0.0574892
-0.0527913
-0.0473533
-0.0413044
-0.0347691
-0.027712
-0.0203493
-0.0139069
-0.00791087
-0.00242303
0.00286434
0.0290527
0.0306645
0.0316725
0.0370656
0.0406554
0.0420681
-0.0515713
-0.0496049
-0.0468899
-0.0435079
-0.0394824
-0.0349241
-0.0299746
-0.0244944
-0.018743
-0.0139791
-0.00921826
-0.00537623
0.0147929
0.0268902
0.0242571
0.0208557
0.0252476
0.0280394
0.0292167
-0.0403289
-0.0391619
-0.0374526
-0.0352401
-0.0324839
-0.0292782
-0.0257839
-0.0218092
-0.0176983
-0.014535
-0.0109871
-0.00824129
0.015459
0.021748
0.00809578
0.0105275
0.0138223
0.0158841
0.0168311
-0.0302982
-0.0298186
-0.0289892
-0.0278142
-0.0262272
-0.0243104
-0.0222166
-0.0197555
-0.0172894
-0.0154938
-0.0131682
-0.0104834
0.0121662
-0.00373942
-0.00239358
0.000804174
0.0030557
0.00438935
0.00506728
-0.0212189
-0.0213314
-0.0212951
-0.0210689
-0.0206045
-0.0199723
-0.0192598
-0.0183144
-0.0174179
-0.0168236
-0.0157605
-0.014665
0.00492513
-0.0121268
-0.00992932
-0.00830081
-0.00711243
-0.0064836
-0.00611037
-0.0128057
-0.0134574
-0.0141781
-0.014894
-0.0155674
-0.0162187
-0.0168599
-0.0173859
-0.0179728
-0.0185683
-0.0187808
-0.0192097
-0.0188328
-0.0178506
-0.0174645
-0.0172223
-0.0171371
-0.0172363
-0.0171914
-0.00488428
-0.0060506
-0.00754375
-0.00920921
-0.0110331
-0.0129443
-0.0149353
-0.0168983
-0.0190454
-0.0209334
-0.022459
-0.0238812
-0.0234061
-0.0243809
-0.0253238
-0.0266007
-0.0278084
-0.0287984
-0.0290217
)
;

boundaryField
{
    leftWall
    {
        type            fixedFluxPressure;
        gradient        uniform 0;
        value           nonuniform List<scalar> 
50
(
1009.72
1013.54
1017.07
1021.12
1026.14
1033.37
1043.79
1057.1
1082.17
1085.28
1001.06
1136.21
1444.01
1324.25
915.876
706.067
774.86
830.47
646.162
60.9804
1.88047
0.763882
0.759591
1.05164
0.789493
0.125544
-0.682815
-1.3288
-1.63718
-1.63294
-1.40989
-1.09734
-0.815782
-0.605794
-0.452955
-0.338021
-0.250585
-0.185071
-0.136073
-0.0997734
-0.0729227
-0.0530913
-0.0384516
-0.0276434
-0.0196544
-0.013731
-0.00929091
-0.0059383
-0.00317462
-0.00143733
)
;
    }
    rightWall
    {
        type            fixedFluxPressure;
        gradient        uniform 0;
        value           nonuniform List<scalar> 
50
(
518.84
506.63
453.09
430.802
430.225
513.903
481.761
482.941
320.228
55.2239
42.2556
41.0427
5.92965
5.42653
4.99322
4.20202
3.45263
2.82894
2.39995
2.10474
1.85016
1.61049
1.44948
1.60427
1.30402
0.710351
0.541603
0.40824
0.324245
0.274273
0.261458
0.262523
0.261957
0.246717
0.217315
0.183784
0.153994
0.130114
0.111381
0.0958928
0.0819146
0.0684783
0.0552026
0.0420681
0.0292167
0.0168311
0.00506728
-0.00611037
-0.0171914
-0.0290217
)
;
    }
    lowerWall
    {
        type            fixedFluxPressure;
        gradient        uniform 0;
        value           nonuniform List<scalar> 
62
(
1009.72
997.217
977.841
952.734
925.167
895.565
863.588
830.482
799.156
772.567
752.796
740.59
735.657
736.556
739.289
740.49
741.458
741.436
741.725
744.898
747.012
748.812
748.822
748.822
747.461
745.717
744.071
742.98
742.66
742.625
744.256
769.687
775.781
776.242
772.779
650.765
655.872
657.126
653.924
652.272
659.439
676.031
693.948
650.765
597.957
579.509
607.365
580.556
493.715
481.841
530.295
540.709
483.07
391.633
358.216
381.924
431.519
459.917
474.528
507.622
531.367
518.84
)
;
    }
    atmosphere
    {
        type            totalPressure;
        rho             rho;
        psi             none;
        gamma           1;
        p0              uniform 0;
        value           nonuniform List<scalar> 
46
(
0
0
0
0
0
0
0
0
0
0
0
0
0
0
0
0
0
0
0
0
0
0
0
-6.00735e-06
-7.43998e-05
-0.000229964
-0.000486959
-0.00117284
-0.00258882
-0.00452119
-0.00660236
-0.0089864
-0.011499
-0.0141945
-0.016869
-0.0199775
-0.0225586
-0.0247877
-0.0269309
-0.0257822
-0.0276609
-0.0295323
-0.0318526
-0.0338962
-0.0355347
-0.0357308
)
;
    }
    defaultFaces
    {
        type            empty;
    }
}


// ************************************************************************* //
