/*--------------------------------*- C++ -*----------------------------------*\
| =========                 |                                                 |
| \\      /  F ield         | OpenFOAM: The Open Source CFD Toolbox           |
|  \\    /   O peration     | Version:  2206                                  |
|   \\  /    A nd           | Website:  www.openfoam.com                      |
|    \\/     M anipulation  |                                                 |
\*---------------------------------------------------------------------------*/
FoamFile
{
    version     2.0;
    format      ascii;
    arch        "LSB;label=32;scalar=64";
    class       volScalarField;
    location    "0.5";
    object      alpha.water;
}
// * * * * * * * * * * * * * * * * * * * * * * * * * * * * * * * * * * * * * //

dimensions      [0 0 0 0 0 0 0];

internalField   nonuniform List<scalar> 
2268
(
1
1
1
1
1
1
1
1
1
1
1
1
1
1
1
1
1
1
1
0.999999
0.999999
0.97406
0.875837
1
1
1
1
1
1
1
1
1
1
1
1
1
1
1
1
1
1
1
0.999985
0.99994
0.999939
0.87813
1
1
1
1
1
1
1
1
1
1
1
1
1
1
1
1
1
1
1
1
1
0.995224
0.932134
1
1
1
1
1
1
1
1
1
1
1
1
1
1
1
1
1
1
1
1
0.999986
0.999609
0.996547
1
1
1
1
1
1
1
1
1
1
1
1
1
1
1
1
1
1
1
1
1
1
1
1
1
1
1
1
1
1
1
1
1
1
1
1
1
1
1
1
1
1
1
1
1
1
1
1
1
0.998741
1
1
1
1
1
1
1
1
1
1
1
1
1
1
1
1
1
1
1
0.589852
0.566146
0.541996
0.579974
0.641606
0.705637
0.783922
0.853267
0.914429
0.969407
1
1
1
0.999999
0.999998
0.999999
0.999998
0.999998
0.999998
0.999998
0.999998
0.999999
1
3.20141e-05
9.2129e-05
0.000481721
0.00475536
0.0167071
0.0496009
0.031061
0.0280649
0.00667973
0.00282714
0.00101994
0.000296022
6.86314e-05
1.27236e-05
1.85378e-06
2.0212e-07
1.50106e-08
1.403e-09
1.41407e-09
1.72919e-05
0.000125588
0.000409485
0.000438345
0.122516
0.392776
0.264528
0.0440861
0.00587553
0.00234003
0.000861152
0.000275675
7.46344e-05
1.67413e-05
3.01627e-06
4.13145e-07
3.86291e-08
2.61557e-09
1.24673e-09
7.91554e-06
2.30847e-05
3.37495e-05
5.55134e-05
0.432874
0.511792
0.463901
0.0751981
0.00313089
0.00106636
0.000437209
0.000153021
4.08888e-05
8.52103e-06
1.44622e-06
2.06786e-07
2.03202e-08
1.60702e-09
8.20545e-10
7.14625e-06
7.48451e-06
1.03476e-05
0.183019
0.511792
0.511792
0.511792
0.225459
0.00537567
0.000668466
0.000185461
5.32221e-05
1.39385e-05
3.17517e-06
5.9607e-07
8.62926e-08
8.68836e-09
7.6941e-10
4.65246e-10
7.09529e-06
7.14625e-06
0.00869774
0.453569
0.501878
0.511792
0.501878
0.389404
0.0449718
0.00092906
0.000189495
4.10413e-05
8.6992e-06
1.71972e-06
2.93986e-07
4.01392e-08
3.94075e-09
4.3729e-10
3.34727e-10
7.09529e-06
7.09529e-06
0.325453
0.451815
0.471427
0.439131
0.48248
0.412586
0.0805565
0.00124656
0.000248353
4.7742e-05
8.86547e-06
1.49569e-06
2.17843e-07
2.56457e-08
2.2771e-09
3.12326e-10
2.88054e-10
7.09529e-06
0.247905
0.374153
0.332786
0.0830886
0.0113653
0.0723648
0.132777
0.0779441
0.00214927
0.000272802
5.19691e-05
9.64375e-06
1.5577e-06
2.09191e-07
2.21056e-08
1.7071e-09
2.63677e-10
2.72421e-10
0.595663
0.583758
0.348383
0.00336492
0.000460635
0.000112252
0.000568045
0.00131041
0.0142393
0.00624304
0.000311015
5.38731e-05
1.02925e-05
1.66693e-06
2.18273e-07
2.18967e-08
1.58735e-09
2.44622e-10
2.69231e-10
8.91149e-06
0.00535666
0.0195985
0.0407688
0.0555039
0.0663909
0.0902446
0.134499
0.207847
0.318416
0.475114
0.639291
0.756362
0.877634
0.974382
0.993416
0.999158
0.999842
0.999877
0.999893
0.999906
0.99993
0.999982
2.14104e-06
3.08866e-06
5.76396e-08
7.27324e-05
0.000235633
0.000368672
0.000307681
0.000563874
0.0128531
0.0294286
0.0492288
0.081919
0.128163
0.196877
0.320718
0.464037
0.563918
0.696386
0.784905
0.822998
0.852237
0.890239
0.934187
1.56451e-08
2.47911e-08
1.89872e-10
6.93489e-09
1.40662e-05
3.13532e-05
2.80967e-05
2.65302e-05
2.66237e-05
8.35926e-06
8.83116e-07
2.76142e-07
7.79101e-08
1.79237e-08
3.76383e-09
3.94683e-09
3.6713e-09
0.00830258
0.0550231
0.0844745
0.110307
0.156075
0.225705
8.40496e-10
-1.55123e-13
-5.93405e-12
-3.88651e-09
3.51519e-07
1.2655e-06
1.32959e-06
1.17648e-06
9.07336e-07
9.14358e-06
1.44732e-05
1.1954e-05
4.57177e-06
4.65317e-10
9.77386e-11
2.14437e-11
5.08306e-12
4.2054e-11
3.13106e-09
5.34829e-09
2.58911e-09
1.70848e-09
8.27185e-10
0
-1.01346e-16
-6.54889e-16
-3.03726e-11
-5.66928e-10
6.06969e-09
1.50581e-08
1.33151e-08
4.26228e-09
2.47574e-07
1.10399e-10
1.12551e-11
-8.35622e-12
-9.70506e-11
1.25168e-13
2.55e-14
-8.6177e-28
-1.18564e-34
4.32799e-08
6.00557e-08
5.63931e-08
9.04672e-09
8.57097e-13
4.92383e-14
-2.13476e-17
-1.97174e-16
-1.7768e-15
-1.0598e-14
-9.32655e-12
-3.03219e-11
-2.45848e-11
5.63149e-10
-7.94627e-14
-3.91863e-13
-2.15021e-13
-1.45139e-13
-2.91115e-14
-9.26037e-14
-3.54253e-20
-6.83912e-14
-1.29535e-13
-1.94569e-14
8.19715e-14
1.36869e-13
2.0023e-13
5.02936e-13
5.52515e-13
-6.01063e-18
-4.57367e-17
-4.15743e-16
-2.65889e-15
-1.05893e-14
-2.74881e-14
-5.36274e-14
-8.54899e-14
-1.16421e-13
-1.39356e-13
-1.46868e-13
-1.3704e-13
-1.12281e-13
-7.71811e-14
-3.65371e-14
-4.20726e-31
7.64235e-14
2.72504e-13
7.0369e-13
1.65817e-12
3.66633e-12
4.32156e-12
1.12246e-13
3.6978e-18
-8.36293e-18
-7.66592e-17
-5.15769e-16
-2.16222e-15
-5.83908e-15
-1.16308e-14
-1.86184e-14
-2.51925e-14
-2.95984e-14
-3.04938e-14
-2.72238e-14
-1.95064e-14
-8.23065e-15
6.99204e-15
5.0945e-14
1.46372e-13
3.62408e-13
8.44914e-13
1.67958e-12
2.50278e-12
3.23188e-12
5.06775e-15
6.89924e-17
-1.33717e-29
-1.10242e-17
-7.79598e-17
-3.42078e-16
-9.52268e-16
-1.91646e-15
-3.03991e-15
-4.00613e-15
-4.51058e-15
-4.35565e-15
-3.49441e-15
-1.9941e-15
-1.84921e-16
4.00183e-15
1.40391e-14
3.35097e-14
6.95214e-14
1.35852e-13
2.57009e-13
4.80696e-13
8.53155e-13
3.31269e-16
7.07116e-18
-2.78974e-30
-1.2127e-18
-8.96985e-18
-4.09821e-17
-1.16427e-16
-2.33156e-16
-3.58221e-16
-4.42779e-16
-4.45994e-16
-3.45406e-16
-1.33214e-16
1.53476e-16
1.2138e-15
3.74418e-15
9.25036e-15
2.18678e-14
4.99244e-14
1.09309e-13
2.23918e-13
4.40303e-13
8.20799e-13
2.13106e-17
5.87156e-19
0
-9.63029e-20
-7.45174e-19
-3.51806e-18
-1.00242e-17
-1.93901e-17
-2.72051e-17
-2.78828e-17
-1.60743e-17
2.12812e-18
8.57119e-17
3.65771e-16
1.08127e-15
2.94175e-15
7.81796e-15
2.01809e-14
4.85307e-14
1.12017e-13
2.51397e-13
5.38995e-13
1.02254e-12
1.25877e-18
4.44484e-20
-1.00309e-37
-4.93893e-21
-4.00127e-20
-1.92031e-19
-5.20033e-19
-8.77446e-19
-7.26916e-19
-1.96179e-20
3.40264e-18
1.99711e-17
7.3404e-17
2.4823e-16
8.08486e-16
2.49531e-15
7.45467e-15
2.09756e-14
5.85224e-14
1.54476e-13
3.67384e-13
7.67468e-13
1.37663e-12
6.47679e-20
2.9226e-21
-2.30733e-27
-1.22542e-22
-1.02494e-21
-4.56977e-21
-6.46058e-21
1.26905e-21
7.46993e-20
5.1366e-19
2.23006e-18
1.02974e-17
4.55808e-17
1.79957e-16
6.50327e-16
2.24862e-15
7.58332e-15
2.53354e-14
7.75864e-14
2.05802e-13
4.67423e-13
9.28565e-13
1.64339e-12
2.49061e-21
1.5111e-22
-3.47642e-27
0
3.24072e-24
5.66819e-23
6.46852e-22
6.34736e-21
2.58479e-20
1.55736e-19
1.04943e-18
6.18889e-18
2.99472e-17
1.26702e-16
5.1264e-16
2.06277e-15
8.0914e-15
2.92986e-14
9.06374e-14
2.30779e-13
5.0001e-13
9.98283e-13
1.88198e-12
8.03773e-23
5.46516e-24
-1.42509e-26
-1.36933e-26
2.58816e-25
6.22506e-24
9.07028e-23
9.37995e-22
8.69283e-21
7.1421e-20
5.38191e-19
3.45546e-18
1.7931e-17
8.24983e-17
3.84669e-16
1.86256e-15
8.24512e-15
3.07882e-14
9.41526e-14
2.32209e-13
4.93595e-13
1.04982e-12
2.11439e-12
6.91647e-27
4.74877e-27
-2.04482e-26
-6.15591e-28
8.11714e-26
2.05623e-24
3.16768e-23
3.55391e-22
3.31529e-21
2.92551e-20
2.46414e-19
1.75126e-18
9.74216e-18
4.83705e-17
2.64564e-16
1.51548e-15
7.5625e-15
2.89333e-14
8.08714e-14
1.91315e-13
4.62441e-13
1.10844e-12
2.20319e-12
0
-2.23199e-26
-1.27887e-27
3.14411e-28
1.92642e-26
5.27731e-25
8.72087e-24
1.05612e-22
1.1066e-21
1.10499e-20
1.02604e-19
7.96429e-19
4.72719e-18
2.4995e-17
1.62559e-16
1.06736e-15
5.36913e-15
1.86869e-14
5.23779e-14
1.62432e-13
4.86292e-13
1.15628e-12
2.32943e-12
-3.10694e-26
-5.54152e-28
-1.29513e-29
8.55937e-29
4.66845e-27
1.35054e-25
2.35399e-24
3.06494e-23
3.4763e-22
3.81188e-21
3.83862e-20
3.23836e-19
2.05755e-18
1.14802e-17
8.93038e-17
6.2493e-16
2.89668e-15
9.68051e-15
3.7972e-14
1.70214e-13
5.79897e-13
1.0865e-12
7.77064e-12
6.13107e-28
6.02594e-29
5.65815e-32
1.75866e-29
1.06333e-27
3.19613e-26
5.84483e-25
8.14782e-24
1.00286e-22
1.19839e-21
1.30171e-20
1.18998e-19
8.16246e-19
4.82074e-18
4.32716e-17
2.87404e-16
1.24386e-15
5.25022e-15
3.52215e-14
2.35841e-13
6.23969e-13
1.01912e-12
2.39024e-11
1.45706e-28
7.15869e-30
6.02156e-32
3.56923e-30
2.30388e-28
7.1062e-27
1.35817e-25
2.02634e-24
2.69177e-23
3.46864e-22
4.0528e-21
4.00582e-20
2.99963e-19
1.90087e-18
1.79994e-17
1.02339e-16
4.99261e-16
3.49132e-15
3.71878e-14
2.69667e-13
4.58426e-13
1.1167e-12
3.85621e-11
1.85653e-29
9.3734e-31
8.73993e-33
6.97022e-31
4.69851e-29
1.47634e-27
2.95393e-26
4.72675e-25
6.76156e-24
9.33019e-23
1.17146e-21
1.24949e-20
1.03074e-19
7.148e-19
6.36498e-18
3.05063e-17
2.31942e-16
2.64963e-15
2.66861e-14
2.11061e-13
3.01708e-13
1.6656e-12
3.82511e-11
2.06983e-30
1.06563e-31
1.29444e-33
1.30371e-31
8.99721e-30
2.87523e-28
6.05413e-27
1.04212e-25
1.60085e-24
2.35024e-23
3.1651e-22
3.63629e-21
3.3202e-20
2.55877e-19
1.98221e-18
8.86961e-18
1.29084e-16
1.71664e-15
1.07369e-14
8.16722e-14
1.80727e-13
1.72331e-12
1.72364e-11
1.97719e-31
1.05739e-32
2.04633e-34
2.32483e-32
1.6141e-30
5.26155e-29
1.1737e-27
2.1778e-26
3.58267e-25
5.5664e-24
8.01202e-23
9.90428e-22
1.00121e-20
8.54746e-20
5.91512e-19
2.83441e-18
7.01684e-17
7.06265e-16
5.30153e-15
4.51081e-14
1.57479e-13
9.63364e-13
7.47629e-12
1.6421e-32
9.19773e-34
3.33501e-35
3.9264e-33
2.708e-31
9.05678e-30
2.15332e-28
4.30871e-27
7.57356e-26
1.24093e-24
1.89916e-23
2.52642e-22
2.81521e-21
2.61194e-20
1.80603e-19
9.78187e-19
3.02551e-17
2.17338e-16
2.59137e-15
3.83017e-14
1.82829e-13
4.9915e-13
2.08794e-12
1.18103e-33
6.93225e-35
4.93069e-36
6.22853e-34
4.23495e-32
1.46316e-30
3.72446e-29
8.02984e-28
1.50649e-26
2.60025e-25
4.20844e-24
6.02518e-23
7.34473e-22
7.3182e-21
5.48001e-20
3.27695e-19
9.88244e-18
5.74998e-17
1.66248e-15
3.36407e-14
1.85947e-13
2.68714e-13
1.50697e-13
7.28156e-35
4.44913e-36
6.67675e-37
9.18252e-35
6.13947e-33
2.20662e-31
6.03176e-30
1.39933e-28
2.80366e-27
5.1043e-26
8.70032e-25
1.33825e-23
1.77291e-22
1.90165e-21
1.56305e-20
9.98134e-20
2.5177e-18
1.45017e-17
9.98226e-16
2.3192e-14
9.54954e-14
4.42115e-14
-4.84998e-14
3.81863e-36
2.40042e-37
8.21828e-38
1.24275e-35
8.18991e-34
3.08352e-32
9.07024e-31
2.26194e-29
4.84922e-28
9.34143e-27
1.67341e-25
2.75508e-24
3.95673e-23
4.5782e-22
4.10418e-21
2.78461e-20
5.24459e-19
3.55781e-18
5.00664e-16
1.15109e-14
1.53931e-14
-1.14377e-14
-1.22803e-13
1.70034e-37
1.09165e-38
9.09883e-39
1.52429e-36
9.96903e-35
3.9594e-33
1.25551e-31
3.36458e-30
7.7395e-29
1.58419e-27
2.9824e-26
5.23415e-25
8.14387e-24
1.0143e-22
9.8393e-22
7.24035e-21
9.76061e-20
8.49518e-19
2.21803e-16
3.63148e-15
-6.23184e-16
-3.3665e-14
-1.29176e-13
6.45128e-39
4.35216e-40
9.15236e-40
1.67345e-37
1.09772e-35
4.63164e-34
1.586e-32
4.57001e-31
1.13135e-29
2.47138e-28
4.8979e-27
9.13534e-26
1.53659e-24
2.05731e-23
2.13865e-22
1.77442e-21
1.7619e-20
2.01194e-19
9.44226e-17
6.17478e-16
-4.265e-15
-3.64466e-14
-1.03535e-13
2.09611e-40
1.4974e-41
8.8896e-41
1.62515e-38
1.08374e-36
4.89146e-35
1.81234e-33
5.62333e-32
1.50241e-30
3.516e-29
7.35859e-28
1.45613e-26
2.63797e-25
3.7989e-24
4.20529e-23
4.25066e-22
2.45864e-21
3.89029e-20
3.6368e-17
4.98123e-17
-5.39133e-15
-2.86264e-14
-6.86795e-14
5.84609e-42
4.48277e-43
7.81313e-42
1.38051e-39
9.50003e-38
4.61703e-36
1.85528e-34
6.21306e-33
1.79563e-31
4.51556e-30
1.00211e-28
2.10252e-27
4.08929e-26
6.34293e-25
7.45337e-24
1.03259e-22
0
5.49832e-22
8.11368e-18
-4.37018e-17
-4.44333e-15
-1.83496e-14
-3.82324e-14
1.39399e-43
1.18897e-44
5.96062e-43
1.01343e-40
7.30902e-39
3.84836e-37
1.68199e-35
6.09771e-34
1.90969e-32
5.17196e-31
1.22259e-29
2.72165e-28
5.67335e-27
9.48398e-26
1.19013e-24
1.96075e-23
-5.25644e-22
-8.40556e-21
-2.56791e-35
-7.31064e-17
-2.83602e-15
-9.94584e-15
-1.65165e-14
2.80205e-45
2.89014e-46
3.83171e-44
6.33536e-42
4.86295e-40
2.7897e-38
1.33112e-36
5.24213e-35
1.78154e-33
5.20502e-32
1.31653e-30
3.11744e-29
6.96101e-28
1.25569e-26
1.73897e-25
2.17265e-24
-6.50288e-22
-1.27214e-20
-1.26503e-18
-6.48617e-17
-1.50052e-15
-4.62665e-15
-1.1254e-15
4.61467e-47
6.81125e-48
2.01731e-45
3.30697e-43
2.74229e-41
1.72358e-39
9.02165e-38
3.87312e-36
1.43046e-34
4.51585e-33
1.22745e-31
3.10613e-30
7.44076e-29
1.45031e-27
2.3834e-26
-2.05557e-25
-5.43429e-22
-1.24263e-20
-1.36709e-18
-4.25866e-17
-6.79179e-16
-1.86303e-15
-4.25154e-16
5.92969e-49
1.62066e-49
8.40556e-47
1.40097e-44
1.27341e-42
8.82516e-41
5.09811e-39
2.39369e-37
9.62875e-36
3.29166e-34
9.65749e-33
2.63136e-31
6.79026e-30
1.44329e-28
2.32614e-27
-5.81599e-25
-3.55191e-22
-9.37886e-21
-9.55947e-19
-2.22936e-17
-2.65568e-16
-6.4913e-16
-8.71408e-16
5.49835e-51
3.6697e-51
2.64177e-48
4.60837e-46
4.65969e-44
3.59442e-42
2.30839e-40
1.18864e-38
5.22822e-37
1.94236e-35
6.18738e-34
1.83615e-32
5.14432e-31
1.23869e-29
-6.87097e-29
-5.19245e-25
-1.89817e-22
-5.73434e-21
-5.03549e-19
-9.50702e-18
-8.89855e-17
-1.93079e-16
-3.07203e-15
3.23567e-53
6.76954e-53
5.79511e-50
1.09055e-47
1.24939e-45
1.09094e-43
7.85308e-42
4.4494e-40
2.155e-38
8.7571e-37
3.06131e-35
1.00752e-33
3.11426e-32
7.33894e-31
-2.82796e-28
-3.12721e-25
-8.32334e-23
-2.86034e-21
-2.08557e-19
-3.2935e-18
-2.50828e-17
-4.72089e-17
-2.99377e-15
8.00423e-56
8.759e-55
7.58386e-52
1.58849e-49
2.13733e-47
2.18565e-45
1.78225e-43
1.12035e-41
6.0488e-40
2.7257e-38
1.0722e-36
4.03637e-35
1.42121e-33
-4.16868e-32
-2.24111e-28
-1.39301e-25
-2.94416e-23
-1.14573e-21
-6.76176e-20
-9.1254e-19
-5.78911e-18
-6.76119e-18
-6.32039e-15
3.00379e-59
4.80877e-57
3.56775e-54
9.08661e-52
1.6352e-49
2.13496e-47
2.02676e-45
1.4573e-43
9.01459e-42
4.70919e-40
2.24741e-38
1.03009e-36
3.29916e-35
-8.00026e-32
-1.0561e-28
-4.60286e-26
-8.10909e-24
-3.55558e-22
-1.67205e-20
-1.96371e-19
-1.05357e-18
1.77798e-18
-4.63341e-15
1.94085e-64
1.29232e-61
1.31108e-58
6.59002e-56
2.18457e-53
4.75161e-51
9.85755e-49
1.5929e-46
1.87085e-44
2.02188e-42
1.80636e-40
1.12704e-38
-6.74669e-36
-3.92932e-32
-3.16869e-29
-1.07461e-26
-1.63573e-24
-8.02617e-23
-3.00247e-21
-3.12098e-20
-1.43163e-19
1.08937e-17
-1.44477e-14
6.85167e-76
1.07754e-71
3.9697e-68
7.2775e-65
8.63035e-62
7.01482e-59
4.86815e-56
2.51981e-53
8.98933e-51
3.18067e-48
8.07553e-46
-6.45949e-40
-3.77121e-36
-9.17279e-33
-5.59792e-30
-1.58201e-27
-2.15284e-25
-1.17127e-23
-3.53881e-22
-3.32039e-21
-1.31976e-20
-1.86056e-19
-2.45642e-15
0
1.14554e-85
1.12578e-81
2.35316e-78
-6.41157e-73
7.0814e-73
-4.6368e-66
-5.1274e-67
-7.65993e-60
-1.03216e-60
-7.71954e-62
-9.6846e-41
-4.06156e-37
-8.02675e-34
-4.29993e-31
-1.09843e-28
-1.39047e-26
-8.29326e-25
-2.06709e-23
-1.81742e-22
-6.39101e-22
-3.50031e-22
-1.78345e-17
0.997771
0.996403
0.995713
0.992959
0.952269
0.940164
0.886769
0.76219
0.255208
0.217601
0.100733
-2.70877e-05
1.67016e-09
1.65339e-09
1.8562e-09
1.61375e-09
8.27185e-10
4.28302e-09
1.43625e-08
1.226e-08
9.58748e-10
1.29621e-08
1.44739e-08
7.57693e-09
3.67591e-12
4.03035e-12
4.71158e-12
5.17371e-12
3.67368e-12
4.96482e-12
8.41205e-12
8.60149e-12
1.62545e-12
3.97623e-12
7.86718e-12
1.0645e-11
1.45538e-12
2.89611e-12
4.57122e-12
1.02036e-11
1.8299e-12
3.29957e-12
5.42199e-12
2.36376e-11
2.38834e-12
4.86539e-12
1.65012e-11
6.85874e-11
3.10087e-12
8.58167e-12
4.03483e-11
1.37114e-10
3.97972e-12
1.37746e-11
7.42756e-11
1.96432e-10
4.71669e-12
2.34794e-11
1.52367e-10
2.49079e-10
6.61224e-12
7.49306e-11
3.42159e-10
3.22788e-10
3.99082e-11
2.76619e-10
4.87385e-10
4.43959e-10
1.85186e-10
4.96667e-10
4.9418e-10
4.52961e-10
3.42331e-10
5.19742e-10
3.21468e-10
3.23659e-10
3.4785e-10
5.19742e-10
1.84198e-10
1.73782e-10
2.68316e-10
2.57058e-10
5.30082e-11
-7.89376e-11
9.70996e-11
7.7387e-11
8.54508e-12
-5.3687e-10
1.86966e-11
1.17954e-11
1.77833e-12
-2.84656e-09
2.05222e-12
6.65413e-13
-9.51347e-13
-9.08222e-09
-1.50205e-13
-2.16495e-13
-5.25029e-12
-2.04632e-08
-4.71635e-13
-2.74079e-13
-1.26391e-11
-7.00781e-08
-5.15861e-13
0
-5.14113e-11
8.85746e-05
-4.47951e-13
0
-3.44659e-27
0.000429741
-3.03955e-13
0
1.81213e-12
0.000271791
-9.59299e-14
-8.59554e-16
6.43432e-12
1.49432e-05
-8.93067e-16
-6.55922e-14
2.22118e-11
1.77472e-06
-3.09463e-14
-1.37922e-13
7.42728e-11
2.87767e-07
-1.65857e-14
-7.43332e-12
2.41404e-10
9.26055e-09
-1.01161e-12
-1.467e-11
6.66386e-10
2.97571e-08
-1.48907e-12
-5.44066e-10
6.9119e-10
9.09097e-08
-4.83684e-13
6.16292e-09
-1.42946e-08
1.59643e-05
-8.7266e-13
1.3815e-08
5.29695e-07
7.74214e-05
2.98882e-10
5.81552e-10
9.86282e-07
8.67705e-05
2.28192e-12
7.57635e-10
3.42892e-07
2.05914e-05
1.03244e-12
1.44871e-10
1.09642e-08
9.19532e-07
6.02823e-14
-1.09853e-11
9.27317e-10
9.24106e-07
-1.12095e-22
-8.4187e-12
-1.06657e-13
4.88093e-07
0.892475
0.35097
0.00183644
0.000277845
4.16419e-05
2.31018e-05
0.000112251
0.00244877
0.0309453
0.00437094
0.000706636
8.33912e-05
1.37619e-05
2.11981e-06
2.56135e-07
2.32611e-08
1.52603e-09
2.28004e-10
2.69231e-10
0.129945
0.000183062
5.03797e-05
7.14915e-06
1.48917e-06
5.55458e-06
2.31011e-05
0.0593734
0.118029
0.0519789
0.0015066
0.000188655
2.55434e-05
2.58402e-06
1.99097e-07
2.29637e-08
1.78405e-09
2.47265e-10
2.69231e-10
-4.66811e-06
-8.30528e-06
-5.00793e-06
4.25779e-07
5.29948e-07
1.74761e-06
0.045748
0.130362
0.130362
0.117232
0.0147278
0.000381161
5.40768e-05
5.84704e-06
5.90858e-07
1.91413e-08
5.96069e-10
2.44487e-10
2.73088e-10
2.3031e-09
2.36842e-09
1.8002e-09
1.61713e-07
4.35377e-07
5.42559e-07
0.118136
0.130268
0.130407
0.130268
0.0520087
0.000698066
0.000101425
1.1791e-05
1.03993e-06
7.1281e-08
1.36103e-09
1.13652e-10
2.90191e-10
2.67362e-09
6.80646e-08
1.32553e-06
1.18311e-06
4.77317e-07
4.06897e-07
0.0438381
0.128967
0.130268
0.129072
0.0926562
0.00281915
0.000129719
1.51605e-05
1.36732e-06
9.1594e-08
4.26676e-09
2.96486e-10
3.2324e-10
8.82569e-12
7.8989e-07
2.20133e-06
2.12843e-06
8.67398e-07
8.86867e-05
0.00117402
0.112398
0.128967
0.12833
0.0779378
0.00334312
0.000119097
1.41462e-05
1.30775e-06
8.9989e-08
4.28931e-09
3.45341e-10
2.85921e-10
6.09353e-12
3.62502e-07
2.09717e-06
1.75743e-06
2.36508e-07
8.51114e-10
3.78209e-08
0.0334048
0.125435
0.124895
0.0178115
0.000956081
0.000285832
3.32925e-05
2.34226e-06
9.17951e-08
3.55908e-09
2.85812e-10
2.33362e-10
7.82607e-12
1.82983e-11
1.10697e-07
3.00328e-10
3.05089e-10
3.13816e-10
8.51114e-10
0.0210237
0.121664
0.0191384
0.00207415
0.00155723
0.000356954
4.20029e-05
2.64813e-06
1.28869e-07
5.04143e-09
2.25878e-10
1.71721e-10
9.67331e-11
2.21482e-10
2.25233e-10
2.64974e-10
2.97164e-10
3.04951e-10
3.13816e-10
0.0606101
0.0711094
0.00584448
0.00140636
0.0015696
0.00036831
2.52001e-05
2.34354e-06
1.38768e-07
6.42251e-09
3.38553e-10
1.23929e-10
2.07513e-10
6.92956e-10
6.54283e-10
5.05113e-10
3.05089e-10
3.13816e-10
0.00177139
0.0896482
0.0287451
0.0020386
0.000694223
0.000468819
0.000436126
3.10824e-05
1.53954e-06
1.26989e-07
6.98618e-09
3.34428e-10
8.69536e-11
2.5528e-10
7.66669e-10
1.22362e-09
9.83983e-10
3.71372e-10
3.66996e-10
0.0432728
0.0939082
0.0970339
0.036692
0.000779717
0.000239065
0.0002341
3.11715e-05
1.05665e-06
1.00632e-07
6.45452e-09
3.71305e-10
6.2243e-11
2.81838e-10
6.3577e-10
1.11238e-09
1.059e-09
5.48356e-10
4.89326e-10
0.0767064
0.0970339
0.0970339
0.0924834
0.0113338
0.000105663
2.38209e-05
2.57058e-05
1.1832e-06
6.81994e-08
5.2638e-09
3.31123e-10
4.58156e-11
2.94524e-10
7.19864e-10
7.76819e-10
1.17607e-09
8.25282e-10
6.8879e-10
0.0134976
0.0955142
0.0970339
0.0955142
0.0237051
8.79957e-05
1.27952e-05
5.17848e-06
9.78779e-07
4.94355e-08
3.79447e-09
2.86154e-10
3.32379e-11
2.65238e-10
1.44907e-09
4.37451e-09
6.18471e-09
2.36194e-09
1.0664e-09
2.01158e-09
0.0528866
0.0955142
0.0938101
0.020884
6.97552e-05
7.00101e-06
1.78145e-06
6.73497e-07
4.3209e-08
2.6933e-09
2.35364e-10
2.39283e-11
2.49067e-10
1.57158e-09
1.82436e-08
1.95131e-08
4.77484e-09
2.57414e-09
4.13543e-09
0.00444669
0.0583913
0.0285887
0.00295349
0.000430741
2.14775e-05
1.43666e-06
3.10412e-07
3.5647e-08
2.07338e-09
1.89815e-10
1.71261e-11
3.03079e-10
9.2049e-10
2.24029e-08
2.29401e-08
6.29446e-09
4.85044e-09
8.82341e-09
7.6794e-05
0.00143693
0.000981615
0.000823548
0.000581478
3.21448e-05
1.45855e-06
1.6043e-07
2.52822e-08
1.68384e-09
1.52805e-10
1.22378e-11
4.25525e-10
1.68639e-09
1.70517e-08
1.2586e-08
7.37663e-09
8.65686e-09
2.57799e-08
0.00033441
0.00253012
0.00126644
0.00107993
0.000259223
2.50867e-05
1.01498e-06
9.83947e-08
1.52873e-08
1.33969e-09
1.22539e-10
8.74914e-12
6.55102e-10
6.39029e-09
2.60657e-08
2.24729e-08
1.14984e-08
2.10433e-08
-2.2737e-06
0.0342266
0.0296135
0.00843206
0.000768983
0.000116252
1.3334e-05
6.77125e-07
7.06798e-08
9.31863e-09
1.03514e-09
9.72369e-11
6.26701e-12
8.95608e-10
2.56882e-08
6.73443e-08
5.4533e-08
2.39046e-08
6.39017e-08
0.00337958
0.10138
0.103896
0.021171
0.0001101
8.52122e-07
-1.18819e-06
5.54504e-08
4.59105e-08
6.41019e-09
7.96906e-10
7.63526e-11
4.49951e-12
3.04745e-09
9.61965e-08
2.16916e-07
1.66701e-07
6.53953e-08
1.99322e-07
0.0656653
0.104117
0.103821
0.0384099
0.000151616
7.03187e-06
1.96342e-07
1.68724e-08
3.29525e-09
4.20964e-09
6.41004e-10
5.96371e-11
3.23882e-12
1.45922e-08
3.68554e-07
7.39242e-07
5.65339e-07
1.99088e-07
6.36257e-07
0.0961634
0.103821
0.104043
0.0665259
0.000956936
1.48024e-05
5.96727e-07
2.51703e-08
3.54926e-09
2.58554e-09
5.00931e-10
4.6439e-11
2.33798e-12
6.30796e-08
1.34659e-06
2.5175e-06
1.95793e-06
6.36257e-07
2.12466e-06
0.0596628
0.10177
0.103821
0.0996753
0.00475195
2.49704e-05
9.06497e-07
2.72184e-08
2.47269e-09
1.55692e-09
3.83435e-10
3.59635e-11
1.69187e-12
3.50791e-07
4.87009e-06
9.11404e-06
2.33846e-05
8.3933e-06
7.83567e-06
0.00387009
0.0585445
0.10177
0.0746396
0.00713543
3.04375e-05
1.04589e-06
2.50382e-08
1.63488e-09
9.02641e-10
2.90825e-10
2.76119e-11
1.22493e-12
1.40431e-06
1.99512e-05
5.93943e-05
0.000130042
4.31633e-05
1.35096e-05
1.65777e-05
2.24994e-05
0.0167682
0.0149594
0.00533577
0.000162999
6.06873e-06
1.85577e-07
6.90561e-09
7.02996e-10
2.20993e-10
2.09185e-11
8.80934e-13
7.15907e-05
0.000356133
0.000344994
0.000221796
2.50647e-05
1.67476e-05
2.19293e-05
3.72639e-05
5.65253e-05
0.000241257
0.00416415
0.000328117
9.79251e-06
3.97783e-07
1.08098e-08
6.43254e-10
1.66732e-10
1.54996e-11
6.23954e-13
0.000546122
0.000673334
0.000656407
0.000169309
2.43012e-05
2.19293e-05
2.43012e-05
4.35626e-05
6.35415e-05
0.00319979
0.00314879
0.000354118
1.34054e-05
5.91278e-07
1.26496e-08
4.95558e-10
1.2318e-10
1.11929e-11
4.36882e-13
0.000673334
0.000673334
0.000673334
0.000148933
3.53374e-05
2.42557e-05
3.98831e-05
0.000107601
0.000427473
0.00489707
0.00232914
0.000290623
4.20826e-06
4.67127e-08
4.40095e-09
3.36628e-10
9.04047e-11
7.99799e-12
3.03494e-13
0.000658859
0.000673334
0.000418766
7.75168e-05
4.21556e-05
3.77563e-05
0.000213082
0.000293861
0.00043105
0.00499278
0.00197803
4.51719e-05
7.82448e-08
-2.97617e-09
-3.274e-10
2.31655e-10
6.58243e-11
5.61342e-12
2.08424e-13
0.000623982
0.000333823
9.25142e-05
9.2798e-05
6.68969e-05
0.00210622
0.0040241
0.000513889
0.000444779
0.00499843
0.00164902
1.55621e-06
-1.74582e-08
3.67673e-10
1.11644e-10
1.75408e-10
4.74915e-11
3.87946e-12
1.41316e-13
0.000135371
0.000681347
9.23819e-05
8.2946e-05
0.000503592
0.0185026
0.0565658
0.00417444
0.000526096
0.00358906
0.00116439
7.48368e-07
-2.98704e-09
-1.1389e-09
1.45469e-10
1.45921e-10
3.38558e-11
2.64091e-12
9.44469e-14
3.34164e-06
0.00115092
0.000141281
8.25037e-05
8.2946e-05
0.0188271
0.0998239
0.0694321
0.000682653
0.000159941
0.000234242
-6.38121e-07
3.47287e-09
-2.55887e-10
1.11668e-10
1.26038e-10
2.38058e-11
1.77147e-12
6.21621e-14
5.16515e-06
0.00115256
0.000137551
8.2946e-05
8.74534e-05
0.00721142
0.106382
0.106442
0.0197854
8.63835e-05
3.06715e-06
-2.47945e-07
-5.36424e-08
8.71289e-11
9.88287e-11
1.07193e-10
1.6492e-11
1.17145e-12
4.02374e-14
4.95714e-07
0.00103426
0.000234919
9.16941e-05
8.64974e-05
0.0169262
0.107903
0.106622
0.0436242
3.60722e-05
1.34535e-06
4.94802e-08
-6.10151e-09
-6.22665e-10
9.04195e-11
8.73194e-11
1.1241e-11
7.63935e-13
2.55896e-14
1.4809e-06
0.000182454
0.00753431
0.000234919
0.000143519
0.0765213
0.109755
0.108278
0.0410262
1.45167e-05
6.76872e-07
-7.14258e-09
3.71517e-10
5.72095e-11
8.05739e-11
6.68898e-11
7.52648e-12
4.91289e-13
1.59783e-14
4.61855e-05
3.72072e-05
0.0179524
0.0291878
0.0719153
0.109755
0.109755
0.0907938
0.0111134
0.000284251
3.0772e-07
9.07821e-09
-1.46703e-09
1.13831e-10
9.71146e-11
4.75842e-11
4.94287e-12
3.11494e-13
9.79169e-15
0.000169571
7.16935e-06
0.00269427
0.1025
0.108515
0.109135
0.109755
0.0204747
0.000950311
0.000122928
3.81625e-08
5.83233e-09
3.63179e-11
9.75319e-11
1.20392e-10
3.26886e-11
3.1825e-12
1.9465e-13
5.88835e-15
0.000164848
5.61156e-09
1.79136e-08
0.00193947
0.0712464
0.084643
0.0213715
0.000209217
0.00111671
9.37845e-07
3.44226e-08
-2.36309e-09
1.53354e-10
9.98983e-11
1.12835e-10
2.18105e-11
2.0092e-12
1.19854e-13
3.47656e-15
0.000132222
4.29165e-09
5.61156e-09
3.91781e-08
6.47605e-08
2.0954e-07
5.05779e-07
0.000129433
0.000334197
2.38559e-07
1.2031e-08
2.71014e-10
1.03615e-11
9.28483e-11
9.32504e-11
1.41505e-11
1.24429e-12
7.27026e-14
2.01235e-15
4.59538e-05
2.17448e-09
4.19443e-09
1.04612e-07
8.1727e-07
2.7573e-06
2.27906e-05
3.82841e-05
6.67736e-06
1.84023e-07
-2.57047e-09
1.58114e-10
8.41068e-11
8.92322e-11
6.5056e-11
8.9583e-12
7.5737e-13
4.34923e-14
1.15776e-15
1.11842e-05
3.98719e-10
1.76401e-09
2.63117e-08
3.6777e-06
2.48565e-05
2.86385e-05
7.524e-06
2.53927e-06
7.11822e-08
3.79345e-09
2.07713e-11
8.93217e-11
9.11974e-11
4.10996e-11
5.50241e-12
4.50101e-13
2.54767e-14
5.84593e-16
6.91879e-06
2.68862e-13
2.43486e-12
6.20883e-10
3.09195e-06
1.27259e-05
1.84462e-05
2.87235e-06
9.24173e-07
2.66421e-08
1.52762e-09
1.56614e-10
8.35385e-11
8.65244e-11
2.65535e-11
3.48399e-12
2.77444e-13
1.55086e-14
2.39286e-16
3.31903e-06
-2.8042e-26
-2.88241e-12
-1.0235e-11
-3.56065e-11
-8.85469e-12
1.8162e-06
2.35378e-06
3.23216e-07
9.76905e-09
6.30562e-10
9.82604e-11
7.07509e-11
5.6396e-11
1.24954e-11
1.56374e-12
1.19485e-13
6.53714e-15
2.39286e-16
)
;

boundaryField
{
    leftWall
    {
        type            zeroGradient;
    }
    rightWall
    {
        type            zeroGradient;
    }
    lowerWall
    {
        type            zeroGradient;
    }
    atmosphere
    {
        type            inletOutlet;
        inletValue      uniform 0;
        value           nonuniform List<scalar> 
46
(
0
0
0
0
0
0
0
0
0
0
0
0
0
0
0
0
0
0
0
0
0
0
0
0
0
0
0
0
0
0
0
0
0
1.8162e-06
2.35378e-06
3.23216e-07
9.76905e-09
6.30562e-10
9.82604e-11
7.07509e-11
5.6396e-11
1.24954e-11
1.56374e-12
1.19485e-13
6.53714e-15
2.39286e-16
)
;
    }
    defaultFaces
    {
        type            empty;
    }
}


// ************************************************************************* //
