/*--------------------------------*- C++ -*----------------------------------*\
| =========                 |                                                 |
| \\      /  F ield         | OpenFOAM: The Open Source CFD Toolbox           |
|  \\    /   O peration     | Version:  2206                                  |
|   \\  /    A nd           | Website:  www.openfoam.com                      |
|    \\/     M anipulation  |                                                 |
\*---------------------------------------------------------------------------*/
FoamFile
{
    version     2.0;
    format      ascii;
    arch        "LSB;label=32;scalar=64";
    class       volVectorField;
    location    "0.5";
    object      U;
}
// * * * * * * * * * * * * * * * * * * * * * * * * * * * * * * * * * * * * * //

dimensions      [0 1 -1 0 0 0 0];

internalField   nonuniform List<vector> 
2268
(
(-0.0153028 0.0167334 0)
(-0.0199639 -0.000957143 0)
(-0.0129416 -0.0062162 0)
(-0.00779779 -0.00354071 0)
(-0.00609833 0.000571155 0)
(-0.00851961 0.00356016 0)
(-0.0130217 0.00474002 0)
(-0.0178509 0.00464116 0)
(-0.0220042 0.00401765 0)
(-0.0253251 0.00340371 0)
(-0.0278837 0.00301823 0)
(-0.0299416 0.00294066 0)
(-0.0316259 0.00313309 0)
(-0.0329893 0.00340259 0)
(-0.0339593 0.00361582 0)
(-0.0345587 0.00364325 0)
(-0.0347094 0.00313716 0)
(-0.0339096 0.00130042 0)
(-0.030883 -0.00377932 0)
(-0.0233381 -0.0139643 0)
(-0.00951069 -0.0328243 0)
(0.0219002 -0.0489346 0)
(0.0340265 0.02171 0)
(-0.0176934 0.0507049 0)
(-0.020481 -0.00186595 0)
(-0.0164813 -0.017391 0)
(-0.0114336 -0.0100458 0)
(-0.0100005 0.00169215 0)
(-0.0121116 0.0101206 0)
(-0.0160699 0.0132775 0)
(-0.0202537 0.0126751 0)
(-0.023713 0.0104498 0)
(-0.0262572 0.00793688 0)
(-0.0278626 0.00574097 0)
(-0.0284585 0.00394283 0)
(-0.0281053 0.00246162 0)
(-0.0268835 0.00109458 0)
(-0.0246595 -0.000301761 0)
(-0.0216242 -0.00198323 0)
(-0.0177177 -0.00432976 0)
(-0.0134027 -0.008082 0)
(-0.00662285 -0.0151543 0)
(-0.00540447 -0.0258682 0)
(0.00579421 -0.0480284 0)
(-0.00468696 -0.0581344 0)
(0.0132523 0.0851785 0)
(-0.0170097 0.086581 0)
(-0.0230323 0.00206865 0)
(-0.0228591 -0.0250447 0)
(-0.0186378 -0.0151692 0)
(-0.0174821 0.00278994 0)
(-0.0190362 0.0157539 0)
(-0.0223829 0.0205901 0)
(-0.0259211 0.0195686 0)
(-0.0289631 0.0158726 0)
(-0.0312534 0.0116077 0)
(-0.0326773 0.0075957 0)
(-0.0333534 0.00389655 0)
(-0.033246 0.000353667 0)
(-0.0323197 -0.0031032 0)
(-0.0305167 -0.00648575 0)
(-0.0278794 -0.00994646 0)
(-0.0244173 -0.013655 0)
(-0.0212657 -0.0182005 0)
(-0.0152127 -0.0243291 0)
(-0.01741 -0.0319038 0)
(-0.0099156 -0.0439524 0)
(-0.0318182 -0.0440484 0)
(-0.0111377 0.0519153 0)
(-0.0166193 0.124795 0)
(-0.0264435 0.0145479 0)
(-0.0323344 -0.0272365 0)
(-0.0286787 -0.0191436 0)
(-0.0272973 0.00306447 0)
(-0.0280192 0.0197761 0)
(-0.0304423 0.0262231 0)
(-0.033345 0.0251002 0)
(-0.0359559 0.0204117 0)
(-0.037938 0.0149514 0)
(-0.0392108 0.00978399 0)
(-0.0397653 0.00503546 0)
(-0.0395579 0.000489827 0)
(-0.0385903 -0.00415151 0)
(-0.0369918 -0.0089442 0)
(-0.0348768 -0.0137563 0)
(-0.0321767 -0.0185266 0)
(-0.0299214 -0.0234477 0)
(-0.0250157 -0.0281689 0)
(-0.0269745 -0.0321181 0)
(-0.0193957 -0.0356691 0)
(-0.0334891 -0.0412157 0)
(-0.0104139 -0.00673509 0)
(-0.0149816 0.163577 0)
(-0.0287631 0.0379181 0)
(-0.0427316 -0.0239189 0)
(-0.0403693 -0.0244576 0)
(-0.0380325 0.00173832 0)
(-0.0381794 0.0234325 0)
(-0.0400941 0.0326403 0)
(-0.0425332 0.0320657 0)
(-0.044867 0.0264705 0)
(-0.0466798 0.0191608 0)
(-0.0478673 0.0117034 0)
(-0.0483323 0.00451939 0)
(-0.0480907 -0.00228656 0)
(-0.0470695 -0.00868241 0)
(-0.0449212 -0.0145777 0)
(-0.0416885 -0.0199932 0)
(-0.0376545 -0.025135 0)
(-0.0336935 -0.03023 0)
(-0.0278969 -0.0349911 0)
(-0.0269367 -0.0389432 0)
(-0.016816 -0.0395504 0)
(-0.0230491 -0.0509549 0)
(-0.00229199 -0.0446232 0)
(-0.000614395 0.200772 0)
(-0.0158001 0.0692893 0)
(-0.0354579 -0.0150756 0)
(-0.0402762 -0.0328035 0)
(-0.0402567 -0.00608766 0)
(-0.0419161 0.0189592 0)
(-0.0468697 0.0291301 0)
(-0.0521861 0.0291586 0)
(-0.0571377 0.0238918 0)
(-0.0611452 0.0172287 0)
(-0.0636359 0.0108714 0)
(-0.0643064 0.00496041 0)
(-0.0630978 -0.00157534 0)
(-0.0601299 -0.00979039 0)
(-0.0557425 -0.0185689 0)
(-0.0505649 -0.0268102 0)
(-0.0447103 -0.0341251 0)
(-0.0384285 -0.0403249 0)
(-0.0310572 -0.0449226 0)
(-0.0259864 -0.0481001 0)
(-0.0152662 -0.0471406 0)
(-0.0145303 -0.0585489 0)
(0.000509055 -0.0600219 0)
(0.013346 0.184966 0)
(0.0251684 0.127106 0)
(0.0222012 0.0286518 0)
(-0.0123417 -0.00903679 0)
(-0.0341224 0.0137184 0)
(-0.0418084 0.0485335 0)
(-0.0493008 0.0632777 0)
(-0.0543798 0.0631443 0)
(-0.058993 0.0530949 0)
(-0.0628063 0.0376876 0)
(-0.0664483 0.0202119 0)
(-0.071022 0.00374122 0)
(-0.076659 -0.0107287 0)
(-0.0797471 -0.023259 0)
(-0.0767524 -0.0332874 0)
(-0.0693631 -0.0415654 0)
(-0.0596377 -0.0492476 0)
(-0.047611 -0.0557154 0)
(-0.0336312 -0.0607989 0)
(-0.0203498 -0.0661811 0)
(-0.00595284 -0.0660932 0)
(0.00323199 -0.0825349 0)
(0.0133435 -0.0845667 0)
(0.0337701 0.086505 0)
(0.09899 0.062475 0)
(0.11057 0.0332036 0)
(0.0460212 0.0362994 0)
(-0.0152335 0.0325087 0)
(-0.0391056 0.0308877 0)
(-0.0503671 0.0274363 0)
(-0.0584599 0.0282792 0)
(-0.0669717 0.0261175 0)
(-0.0761968 0.0241588 0)
(-0.0855166 0.0251131 0)
(-0.0955081 0.02767 0)
(-0.103642 0.0192607 0)
(-0.101046 -0.0114027 0)
(-0.0896789 -0.0450986 0)
(-0.0808252 -0.062243 0)
(-0.0710036 -0.078087 0)
(-0.0571115 -0.0909447 0)
(-0.0426426 -0.0953495 0)
(-0.0243981 -0.0957046 0)
(-0.0235897 -0.0865228 0)
(0.0114514 -0.0739303 0)
(-0.0107048 -0.0105724 0)
(-0.187949 0.345734 0)
(-1.0417 0.301125 0)
(-1.93572 -0.0271225 0)
(-2.17892 -0.55187 0)
(-1.13622 -1.31685 0)
(0.341333 -1.64792 0)
(1.08261 -1.56784 0)
(2.23333 -1.21116 0)
(3.63588 -0.708813 0)
(3.989 -0.189013 0)
(3.25212 0.242445 0)
(2.31273 0.434532 0)
(1.65662 0.350455 0)
(1.22813 0.213178 0)
(0.90118 0.142421 0)
(0.656424 0.113963 0)
(0.451593 0.101251 0)
(0.264081 0.0950826 0)
(0.0871067 0.0926857 0)
(-0.0521456 0.844638 0)
(-0.385468 0.905772 0)
(-0.651792 0.526618 0)
(0.158684 0.0497583 0)
(0.562824 -1.27769 0)
(0.692098 -1.7595 0)
(0.701469 -1.8349 0)
(0.984721 -1.53298 0)
(1.67327 -0.77381 0)
(2.86444 0.10347 0)
(2.79344 0.797612 0)
(2.24391 1.04883 0)
(1.8781 0.901498 0)
(1.53263 0.649637 0)
(1.18724 0.480599 0)
(0.885573 0.394271 0)
(0.617367 0.350342 0)
(0.364817 0.327682 0)
(0.121499 0.317378 0)
(0.054261 0.98699 0)
(0.153947 0.896994 0)
(0.34435 0.0133875 0)
(0.605518 -0.536781 0)
(0.770971 -1.38551 0)
(0.709679 -1.70859 0)
(0.590697 -1.81472 0)
(0.565571 -1.80698 0)
(0.689165 -1.27741 0)
(1.26394 -0.310077 0)
(1.43196 0.768231 0)
(1.35834 1.23071 0)
(1.3451 1.16395 0)
(1.22531 0.941183 0)
(1.01899 0.77181 0)
(0.795163 0.673065 0)
(0.568339 0.616372 0)
(0.340472 0.584936 0)
(0.114006 0.569561 0)
(0.0101269 0.845674 0)
(0.273569 0.678981 0)
(0.32727 0.0590999 0)
(0.709241 -0.924012 0)
(0.798465 -1.42998 0)
(0.720629 -1.61505 0)
(0.630241 -1.71643 0)
(0.569164 -1.77114 0)
(0.457639 -1.5047 0)
(0.67036 -0.564471 0)
(0.822869 0.479818 0)
(0.916271 1.0978 0)
(0.999058 1.18569 0)
(0.964486 1.07432 0)
(0.84122 0.964689 0)
(0.677744 0.891631 0)
(0.493717 0.845384 0)
(0.298915 0.818278 0)
(0.100322 0.8041 0)
(-0.0320692 0.782132 0)
(-0.0465931 0.267384 0)
(0.49437 -0.46027 0)
(0.7599 -1.11216 0)
(0.784574 -1.41045 0)
(0.741993 -1.55058 0)
(0.707738 -1.63324 0)
(0.640841 -1.66476 0)
(0.535912 -1.56969 0)
(0.551953 -0.606412 0)
(0.778857 0.318847 0)
(0.877622 0.963536 0)
(0.907716 1.16327 0)
(0.860143 1.15297 0)
(0.750442 1.10566 0)
(0.606645 1.06657 0)
(0.443506 1.03854 0)
(0.269315 1.02078 0)
(0.0903456 1.01025 0)
(-0.250744 0.840999 0)
(0.345011 -0.0923799 0)
(0.674853 -0.792671 0)
(0.758187 -1.17331 0)
(0.745986 -1.38543 0)
(0.763842 -1.51464 0)
(0.769486 -1.56207 0)
(0.682119 -1.54481 0)
(0.584642 -1.50544 0)
(0.560537 -0.794813 0)
(0.856946 0.197142 0)
(0.955727 0.892681 0)
(0.933902 1.1896 0)
(0.849855 1.25202 0)
(0.723168 1.2452 0)
(0.575433 1.22948 0)
(0.417204 1.21543 0)
(0.252316 1.2053 0)
(0.084394 1.19762 0)
(0.266755 0.73707 0)
(0.597223 -0.455752 0)
(0.718597 -0.923581 0)
(0.734853 -1.17455 0)
(0.735411 -1.39121 0)
(0.720212 -1.54867 0)
(0.722279 -1.49698 0)
(0.646926 -1.43432 0)
(0.569475 -1.41728 0)
(0.564756 -1.07729 0)
(0.90127 0.0463906 0)
(1.04115 0.842771 0)
(1.00365 1.26112 0)
(0.882994 1.38896 0)
(0.726775 1.40266 0)
(0.564546 1.39597 0)
(0.403597 1.38795 0)
(0.24214 1.38126 0)
(0.080612 1.37453 0)
(0.404623 -0.323172 0)
(0.665246 -0.666849 0)
(0.74018 -0.924314 0)
(0.813397 -1.12106 0)
(0.822517 -1.34364 0)
(0.602952 -1.51093 0)
(0.456834 -1.48953 0)
(0.471868 -1.43832 0)
(0.470237 -1.41584 0)
(0.477476 -1.24351 0)
(0.832254 -0.203304 0)
(1.1249 0.780056 0)
(1.11232 1.36776 0)
(0.938112 1.57126 0)
(0.73826 1.59039 0)
(0.558094 1.57666 0)
(0.3925 1.56423 0)
(0.233069 1.55499 0)
(0.0771555 1.54657 0)
(-0.0923464 -0.0176048 0)
(-0.0768832 0.0412732 0)
(-0.00196271 0.112118 0)
(0.00375678 0.134621 0)
(-0.0437404 0.110887 0)
(-0.176763 0.0886378 0)
(-0.231781 0.0719983 0)
(-0.23309 0.0701704 0)
(-0.22814 0.0641475 0)
(-0.205233 0.0543355 0)
(-0.180309 0.0422992 0)
(-0.158622 0.0296303 0)
(-0.141724 0.00807787 0)
(-0.132507 -0.031956 0)
(-0.115963 -0.056723 0)
(-0.107076 -0.0640783 0)
(-0.096758 -0.0862193 0)
(-0.0706768 -0.110905 0)
(-0.0476331 -0.117395 0)
(-0.0230914 -0.118303 0)
(-0.00557746 -0.118472 0)
(0.0403424 -0.117545 0)
(0.072989 -0.0727799 0)
(-0.0557008 0.126313 0)
(-0.0400847 0.0610533 0)
(-0.0363024 -0.0270508 0)
(-0.0236365 0.203076 0)
(-0.0440818 0.310638 0)
(-0.155167 0.326886 0)
(-0.326795 0.200545 0)
(-0.58268 0.0731586 0)
(-0.691368 0.0041461 0)
(-0.642449 -0.00942792 0)
(-0.55641 -0.00808741 0)
(-0.485436 -0.0130474 0)
(-0.415511 -0.0297145 0)
(-0.319528 -0.0620072 0)
(-0.237381 -0.0737017 0)
(-0.178068 -0.0784546 0)
(-0.13788 -0.1061 0)
(-0.0977189 -0.126069 0)
(-0.0640413 -0.12373 0)
(-0.0331454 -0.129018 0)
(-0.0021066 -0.143244 0)
(0.0287496 -0.155331 0)
(0.0725537 -0.14912 0)
(-0.0532877 0.124767 0)
(0.00690796 0.0379153 0)
(-0.0041837 0.0553433 0)
(0.0124708 0.120397 0)
(0.0829829 0.258728 0)
(0.144508 0.373592 0)
(0.198473 0.387444 0)
(0.266761 0.357356 0)
(0.198872 0.164382 0)
(0.203352 -0.0340603 0)
(0.235189 -0.150888 0)
(0.204175 -0.150039 0)
(0.24666 -0.15279 0)
(0.273133 -0.180925 0)
(0.226564 -0.202236 0)
(0.143659 -0.184548 0)
(0.036068 -0.162765 0)
(0.159175 -0.218667 0)
(0.0777285 -0.203563 0)
(0.113013 -0.19231 0)
(0.158609 -0.193016 0)
(0.192974 -0.192715 0)
(0.230484 -0.193235 0)
(-0.0423832 0.152647 0)
(-0.00947482 0.0267014 0)
(0.00881358 0.00311712 0)
(0.0668778 0.0650612 0)
(0.153415 0.13898 0)
(0.271923 0.207503 0)
(0.394523 0.221375 0)
(0.51754 0.199765 0)
(0.589893 0.133159 0)
(0.625066 0.0406092 0)
(0.634908 -0.0288609 0)
(0.631455 -0.0688005 0)
(0.63139 -0.0960126 0)
(0.654932 -0.0987498 0)
(0.694484 -0.0759827 0)
(0.695727 -0.000531705 0)
(0.725631 0.0409853 0)
(0.761041 -0.150045 0)
(0.753084 -0.17791 0)
(0.763733 -0.237354 0)
(0.792241 -0.253918 0)
(0.840606 -0.263553 0)
(0.898361 -0.29644 0)
(-0.0322787 0.176633 0)
(-0.0114213 -0.00353176 0)
(0.0202844 -0.0402631 0)
(0.0887707 -0.0167179 0)
(0.171934 0.0318854 0)
(0.269499 0.0709596 0)
(0.37004 0.0769885 0)
(0.457309 0.0532158 0)
(0.532015 0.0122045 0)
(0.582872 -0.0436626 0)
(0.60895 -0.101667 0)
(0.621102 -0.141271 0)
(0.630226 -0.164551 0)
(0.641966 -0.185436 0)
(0.661378 -0.192515 0)
(0.704076 -0.183438 0)
(0.780449 -0.190465 0)
(0.85954 -0.219944 0)
(0.908335 -0.223395 0)
(0.941671 -0.220967 0)
(0.981706 -0.229692 0)
(1.02532 -0.259484 0)
(1.06916 -0.303824 0)
(-0.022442 0.192541 0)
(-0.00614423 -0.0245212 0)
(0.0281688 -0.0970833 0)
(0.0955866 -0.0971864 0)
(0.173517 -0.062943 0)
(0.256259 -0.026301 0)
(0.337417 -0.00781537 0)
(0.409913 -0.0114376 0)
(0.469484 -0.0317883 0)
(0.516144 -0.0639548 0)
(0.551184 -0.0998954 0)
(0.576556 -0.13151 0)
(0.599233 -0.155409 0)
(0.623446 -0.172557 0)
(0.65039 -0.183378 0)
(0.686438 -0.186819 0)
(0.734327 -0.199037 0)
(0.780108 -0.236453 0)
(0.813478 -0.27981 0)
(0.846546 -0.310816 0)
(0.890451 -0.336802 0)
(0.939464 -0.364446 0)
(0.98614 -0.397054 0)
(-0.0142946 0.202733 0)
(-0.000207587 -0.0458885 0)
(0.033869 -0.153997 0)
(0.0969359 -0.174468 0)
(0.169066 -0.148627 0)
(0.242911 -0.111594 0)
(0.313136 -0.08558 0)
(0.375826 -0.0787263 0)
(0.429111 -0.0899841 0)
(0.473593 -0.113086 0)
(0.51083 -0.142387 0)
(0.542474 -0.171544 0)
(0.571279 -0.197027 0)
(0.600219 -0.218809 0)
(0.631439 -0.236842 0)
(0.667481 -0.251709 0)
(0.709948 -0.268248 0)
(0.75444 -0.290389 0)
(0.7937 -0.313112 0)
(0.828477 -0.33228 0)
(0.864384 -0.353285 0)
(0.901794 -0.380727 0)
(0.938028 -0.415017 0)
(-0.00746917 0.207271 0)
(0.00557496 -0.0669651 0)
(0.0387464 -0.208054 0)
(0.0969999 -0.246501 0)
(0.163046 -0.22602 0)
(0.22923 -0.186743 0)
(0.291258 -0.154182 0)
(0.347093 -0.138961 0)
(0.396361 -0.141386 0)
(0.439805 -0.15665 0)
(0.478493 -0.179258 0)
(0.513606 -0.204316 0)
(0.546588 -0.228361 0)
(0.579099 -0.249973 0)
(0.612546 -0.269197 0)
(0.647954 -0.286885 0)
(0.685685 -0.30565 0)
(0.724011 -0.328343 0)
(0.7602 -0.354083 0)
(0.794587 -0.379617 0)
(0.829644 -0.40532 0)
(0.865503 -0.433035 0)
(0.900311 -0.463556 0)
(-0.00293666 0.203747 0)
(0.0103146 -0.0860509 0)
(0.0437351 -0.259151 0)
(0.097514 -0.313044 0)
(0.15751 -0.295613 0)
(0.216541 -0.253175 0)
(0.271569 -0.215056 0)
(0.321938 -0.193731 0)
(0.36803 -0.190448 0)
(0.410507 -0.201061 0)
(0.449961 -0.220136 0)
(0.487031 -0.242906 0)
(0.522479 -0.266163 0)
(0.557068 -0.288188 0)
(0.591634 -0.308735 0)
(0.626863 -0.328251 0)
(0.662961 -0.347879 0)
(0.699295 -0.368813 0)
(0.734566 -0.39105 0)
(0.768356 -0.413735 0)
(0.80127 -0.437446 0)
(0.833329 -0.463535 0)
(0.863807 -0.492583 0)
(-0.00105109 0.195735 0)
(0.0144061 -0.108441 0)
(0.0488679 -0.308127 0)
(0.098953 -0.374255 0)
(0.153133 -0.357845 0)
(0.205384 -0.31185 0)
(0.254143 -0.269424 0)
(0.299876 -0.244271 0)
(0.343359 -0.237766 0)
(0.385053 -0.245662 0)
(0.425082 -0.262428 0)
(0.463429 -0.283307 0)
(0.500295 -0.305219 0)
(0.536065 -0.326554 0)
(0.571193 -0.346864 0)
(0.606085 -0.366468 0)
(0.640852 -0.386095 0)
(0.675253 -0.406549 0)
(0.708774 -0.428152 0)
(0.741194 -0.450669 0)
(0.772688 -0.47416 0)
(0.80316 -0.499044 0)
(0.832094 -0.525497 0)
(-0.000510772 0.185838 0)
(0.0185492 -0.133345 0)
(0.0544121 -0.355605 0)
(0.101421 -0.430513 0)
(0.150015 -0.413142 0)
(0.195871 -0.36349 0)
(0.239019 -0.318153 0)
(0.280839 -0.291265 0)
(0.322217 -0.283563 0)
(0.3632 -0.290221 0)
(0.403391 -0.30553 0)
(0.442339 -0.324898 0)
(0.479832 -0.345393 0)
(0.51598 -0.365623 0)
(0.551081 -0.385192 0)
(0.585448 -0.404325 0)
(0.619232 -0.423474 0)
(0.652397 -0.443108 0)
(0.684748 -0.463487 0)
(0.716104 -0.484635 0)
(0.746363 -0.506657 0)
(0.775319 -0.529825 0)
(0.80264 -0.554206 0)
(3.5573e-05 0.173723 0)
(0.0231718 -0.16136 0)
(0.0606732 -0.402105 0)
(0.10484 -0.482005 0)
(0.147996 -0.461825 0)
(0.187907 -0.408747 0)
(0.226144 -0.362033 0)
(0.264713 -0.3353 0)
(0.304366 -0.328004 0)
(0.344642 -0.334493 0)
(0.384609 -0.348853 0)
(0.423487 -0.366766 0)
(0.460884 -0.385685 0)
(0.496796 -0.404492 0)
(0.531464 -0.422922 0)
(0.565165 -0.441163 0)
(0.598062 -0.459531 0)
(0.630194 -0.478329 0)
(0.661498 -0.497753 0)
(0.691869 -0.51787 0)
(0.721172 -0.53871 0)
(0.749199 -0.560332 0)
(0.77569 -0.58263 0)
(0.00103215 0.158685 0)
(0.0281535 -0.193002 0)
(0.0674423 -0.447842 0)
(0.108864 -0.528849 0)
(0.146741 -0.504284 0)
(0.181236 -0.448345 0)
(0.215313 -0.40187 0)
(0.251267 -0.376938 0)
(0.289459 -0.371203 0)
(0.328884 -0.378131 0)
(0.368201 -0.391779 0)
(0.406437 -0.408246 0)
(0.44317 -0.425495 0)
(0.478399 -0.442757 0)
(0.512359 -0.459922 0)
(0.545304 -0.477157 0)
(0.577398 -0.494667 0)
(0.608704 -0.512611 0)
(0.639218 -0.531078 0)
(0.668869 -0.550093 0)
(0.697518 -0.569643 0)
(0.724968 -0.589708 0)
(0.751009 -0.610126 0)
(0.00235407 0.14056 0)
(0.0331705 -0.228596 0)
(0.074221 -0.492893 0)
(0.112949 -0.571166 0)
(0.145788 -0.54101 0)
(0.175493 -0.483084 0)
(0.206191 -0.43844 0)
(0.2401 -0.41663 0)
(0.277006 -0.413187 0)
(0.315386 -0.420806 0)
(0.353653 -0.433771 0)
(0.390807 -0.448779 0)
(0.426496 -0.464373 0)
(0.460781 -0.48013 0)
(0.493902 -0.496069 0)
(0.526084 -0.512321 0)
(0.557465 -0.528989 0)
(0.588109 -0.546117 0)
(0.618033 -0.56371 0)
(0.647194 -0.58174 0)
(0.67547 -0.600148 0)
(0.702705 -0.618845 0)
(0.728733 -0.637625 0)
(0.00377558 0.11948 0)
(0.0379393 -0.268141 0)
(0.0805115 -0.53718 0)
(0.11649 -0.609051 0)
(0.144599 -0.572541 0)
(0.170234 -0.513786 0)
(0.198345 -0.472458 0)
(0.230718 -0.454702 0)
(0.266446 -0.453868 0)
(0.303595 -0.462166 0)
(0.340504 -0.474389 0)
(0.376287 -0.487975 0)
(0.410725 -0.502039 0)
(0.443951 -0.516456 0)
(0.476196 -0.531318 0)
(0.507642 -0.546702 0)
(0.538389 -0.562616 0)
(0.568495 -0.57902 0)
(0.597993 -0.595854 0)
(0.626864 -0.613045 0)
(0.655015 -0.630484 0)
(0.682324 -0.648034 0)
(0.708662 -0.665482 0)
(0.00516754 0.0956529 0)
(0.0422985 -0.311283 0)
(0.0859171 -0.580452 0)
(0.118943 -0.642601 0)
(0.142666 -0.599492 0)
(0.16501 -0.541321 0)
(0.19131 -0.504618 0)
(0.222579 -0.491449 0)
(0.257186 -0.493182 0)
(0.292936 -0.501967 0)
(0.328273 -0.513373 0)
(0.36252 -0.525638 0)
(0.395611 -0.538384 0)
(0.427731 -0.551694 0)
(0.459085 -0.565675 0)
(0.4898 -0.580341 0)
(0.519939 -0.595625 0)
(0.549555 -0.611431 0)
(0.578702 -0.627663 0)
(0.607399 -0.644214 0)
(0.635581 -0.660927 0)
(0.663152 -0.677605 0)
(0.690013 -0.694083 0)
(0.00655749 0.0693402 0)
(0.0462359 -0.357388 0)
(0.0901752 -0.622235 0)
(0.119929 -0.671882 0)
(0.139667 -0.622535 0)
(0.159538 -0.566568 0)
(0.184722 -0.535556 0)
(0.215186 -0.527104 0)
(0.248635 -0.531072 0)
(0.282812 -0.540046 0)
(0.316412 -0.550579 0)
(0.349019 -0.561684 0)
(0.380707 -0.573373 0)
(0.411681 -0.58583 0)
(0.442099 -0.599135 0)
(0.472036 -0.61324 0)
(0.501527 -0.628033 0)
(0.530628 -0.643392 0)
(0.559423 -0.659205 0)
(0.587973 -0.67534 0)
(0.616249 -0.691587 0)
(0.64416 -0.70769 0)
(0.671661 -0.723606 0)
(0.00796177 0.0406454 0)
(0.0498724 -0.405649 0)
(0.0932024 -0.661854 0)
(0.119345 -0.696945 0)
(0.135616 -0.642377 0)
(0.153831 -0.590334 0)
(0.178425 -0.565721 0)
(0.208171 -0.56172 0)
(0.240292 -0.567381 0)
(0.272686 -0.576221 0)
(0.304407 -0.585885 0)
(0.335303 -0.596049 0)
(0.365542 -0.606959 0)
(0.395314 -0.618812 0)
(0.424726 -0.631635 0)
(0.453811 -0.645339 0)
(0.482592 -0.659795 0)
(0.511134 -0.674878 0)
(0.539548 -0.690478 0)
(0.567938 -0.706442 0)
(0.59631 -0.72249 0)
(0.62458 -0.738345 0)
(0.652807 -0.754185 0)
(0.00939829 0.009534 0)
(0.0534149 -0.455138 0)
(0.095113 -0.69859 0)
(0.117403 -0.717956 0)
(0.130868 -0.659801 0)
(0.148173 -0.613283 0)
(0.172454 -0.5953 0)
(0.201332 -0.595122 0)
(0.231842 -0.601839 0)
(0.262246 -0.610291 0)
(0.291999 -0.619186 0)
(0.321159 -0.628674 0)
(0.349931 -0.639086 0)
(0.378465 -0.650567 0)
(0.406823 -0.663093 0)
(0.43501 -0.676562 0)
(0.46305 -0.690854 0)
(0.491016 -0.705852 0)
(0.519037 -0.721461 0)
(0.547254 -0.737504 0)
(0.5757 -0.753622 0)
(0.604338 -0.769609 0)
(0.633374 -0.785938 0)
(0.0108719 -0.0241819 0)
(0.0570496 -0.504969 0)
(0.0961695 -0.731851 0)
(0.114544 -0.735282 0)
(0.125956 -0.67562 0)
(0.142934 -0.63587 0)
(0.166906 -0.62421 0)
(0.194602 -0.626984 0)
(0.223217 -0.634167 0)
(0.251514 -0.642124 0)
(0.27931 -0.650452 0)
(0.306785 -0.659558 0)
(0.334127 -0.669739 0)
(0.361435 -0.68106 0)
(0.388738 -0.693469 0)
(0.416031 -0.706878 0)
(0.443342 -0.721187 0)
(0.470744 -0.736297 0)
(0.498375 -0.752134 0)
(0.526394 -0.768488 0)
(0.554865 -0.784957 0)
(0.583862 -0.801508 0)
(0.613685 -0.818886 0)
(0.0125379 -0.0608584 0)
(0.0608916 -0.554358 0)
(0.0966783 -0.761225 0)
(0.111248 -0.749437 0)
(0.121334 -0.690546 0)
(0.138329 -0.658273 0)
(0.161791 -0.65217 0)
(0.187975 -0.656965 0)
(0.214531 -0.6642 0)
(0.240755 -0.671729 0)
(0.266715 -0.679766 0)
(0.292622 -0.688779 0)
(0.318613 -0.698963 0)
(0.344743 -0.710319 0)
(0.371022 -0.722786 0)
(0.397441 -0.736307 0)
(0.424031 -0.750806 0)
(0.450862 -0.766204 0)
(0.47807 -0.782458 0)
(0.505813 -0.799328 0)
(0.534196 -0.816439 0)
(0.563436 -0.833959 0)
(0.593765 -0.852803 0)
(0.0146774 -0.100861 0)
(0.0648722 -0.602638 0)
(0.0968275 -0.786468 0)
(0.107835 -0.760971 0)
(0.117189 -0.705076 0)
(0.134311 -0.68043 0)
(0.156973 -0.678845 0)
(0.18142 -0.684854 0)
(0.205929 -0.691956 0)
(0.230241 -0.699256 0)
(0.254546 -0.707294 0)
(0.279018 -0.716458 0)
(0.303735 -0.726838 0)
(0.328726 -0.738394 0)
(0.353992 -0.751078 0)
(0.379524 -0.764862 0)
(0.405351 -0.779697 0)
(0.43154 -0.795524 0)
(0.458216 -0.812336 0)
(0.485515 -0.829882 0)
(0.513591 -0.847906 0)
(0.542748 -0.866641 0)
(0.572981 -0.887156 0)
(0.0175497 -0.144619 0)
(0.0687344 -0.649246 0)
(0.0965652 -0.807452 0)
(0.104377 -0.77041 0)
(0.113432 -0.719497 0)
(0.130609 -0.702145 0)
(0.152207 -0.703985 0)
(0.174843 -0.710626 0)
(0.197449 -0.717609 0)
(0.220059 -0.724931 0)
(0.242876 -0.73321 0)
(0.266008 -0.742703 0)
(0.289488 -0.753416 0)
(0.313336 -0.765299 0)
(0.337554 -0.778324 0)
(0.362131 -0.792491 0)
(0.387096 -0.807773 0)
(0.412502 -0.824123 0)
(0.438467 -0.841576 0)
(0.465067 -0.859886 0)
(0.492494 -0.878994 0)
(0.521038 -0.89893 0)
(0.550397 -0.921163 0)
(0.0211556 -0.192411 0)
(0.0720659 -0.693654 0)
(0.0955996 -0.824166 0)
(0.100735 -0.778265 0)
(0.109807 -0.733944 0)
(0.126875 -0.723202 0)
(0.147223 -0.727469 0)
(0.168097 -0.734402 0)
(0.188993 -0.741392 0)
(0.210087 -0.74896 0)
(0.231527 -0.757641 0)
(0.253356 -0.767564 0)
(0.275589 -0.778693 0)
(0.298249 -0.79099 0)
(0.321347 -0.804446 0)
(0.344871 -0.819076 0)
(0.368846 -0.83488 0)
(0.393288 -0.851795 0)
(0.418329 -0.869902 0)
(0.443924 -0.888957 0)
(0.470318 -0.909159 0)
(0.497668 -0.930036 0)
(0.525456 -0.953943 0)
(0.0251649 -0.244129 0)
(0.0743946 -0.735277 0)
(0.0935371 -0.83675 0)
(0.0967025 -0.785072 0)
(0.10604 -0.748478 0)
(0.122804 -0.74341 0)
(0.141802 -0.749277 0)
(0.161027 -0.756352 0)
(0.180392 -0.76351 0)
(0.200095 -0.771477 0)
(0.22021 -0.78064 0)
(0.240735 -0.791038 0)
(0.261686 -0.802627 0)
(0.283103 -0.815387 0)
(0.305005 -0.829333 0)
(0.327372 -0.844478 0)
(0.350234 -0.860839 0)
(0.373522 -0.878311 0)
(0.397462 -0.89703 0)
(0.42175 -0.91671 0)
(0.446876 -0.937889 0)
(0.472581 -0.959327 0)
(0.498512 -0.984772 0)
(0.029054 -0.299158 0)
(0.0753151 -0.773439 0)
(0.0900737 -0.845561 0)
(0.0921359 -0.791417 0)
(0.101917 -0.7631 0)
(0.118184 -0.762614 0)
(0.135803 -0.769447 0)
(0.153512 -0.776641 0)
(0.171485 -0.784103 0)
(0.189869 -0.792547 0)
(0.208674 -0.802212 0)
(0.227883 -0.813093 0)
(0.247525 -0.825162 0)
(0.267652 -0.838416 0)
(0.288296 -0.852885 0)
(0.309416 -0.868566 0)
(0.331062 -0.88548 0)
(0.353039 -0.903479 0)
(0.375799 -0.922756 0)
(0.398561 -0.942927 0)
(0.422547 -0.964936 0)
(0.446318 -0.986631 0)
(0.4709 -1.01333 0)
(0.0323133 -0.356435 0)
(0.0745933 -0.807442 0)
(0.0851297 -0.851202 0)
(0.0870171 -0.797879 0)
(0.0973101 -0.777749 0)
(0.112902 -0.780697 0)
(0.129167 -0.78805 0)
(0.14549 -0.795399 0)
(0.162166 -0.80325 0)
(0.179271 -0.812188 0)
(0.196776 -0.822342 0)
(0.214667 -0.833702 0)
(0.232991 -0.846259 0)
(0.2518 -0.860024 0)
(0.271141 -0.875023 0)
(0.29094 -0.891238 0)
(0.311302 -0.908685 0)
(0.331879 -0.927198 0)
(0.353501 -0.947017 0)
(0.374656 -0.967665 0)
(0.398016 -0.990402 0)
(0.419627 -1.01236 0)
(0.444394 -1.03982 0)
(0.0345844 -0.414641 0)
(0.0722125 -0.836702 0)
(0.0788766 -0.854484 0)
(0.0814397 -0.804934 0)
(0.0921638 -0.792297 0)
(0.106934 -0.797588 0)
(0.121906 -0.805178 0)
(0.136958 -0.812736 0)
(0.152405 -0.821008 0)
(0.16826 -0.830416 0)
(0.184481 -0.841032 0)
(0.201069 -0.852859 0)
(0.218078 -0.865903 0)
(0.235558 -0.880178 0)
(0.253561 -0.895697 0)
(0.271988 -0.912437 0)
(0.291031 -0.930404 0)
(0.310196 -0.949483 0)
(0.330785 -0.969901 0)
(0.350393 -0.99121 0)
(0.373746 -1.01464 0)
(0.393016 -1.03733 0)
(0.420076 -1.06486 0)
(0.0357044 -0.472402 0)
(0.0683603 -0.860866 0)
(0.0716743 -0.856318 0)
(0.075555 -0.812861 0)
(0.0864919 -0.806557 0)
(0.100333 -0.813259 0)
(0.114097 -0.820938 0)
(0.127975 -0.828745 0)
(0.142244 -0.837424 0)
(0.156877 -0.84726 0)
(0.171839 -0.858303 0)
(0.187144 -0.870575 0)
(0.202845 -0.884091 0)
(0.218987 -0.898859 0)
(0.235621 -0.914876 0)
(0.252648 -0.932142 0)
(0.270342 -0.950646 0)
(0.288123 -0.970412 0)
(0.307721 -0.99154 0)
(0.325905 -1.01387 0)
(0.349518 -1.03799 0)
(0.366489 -1.06231 0)
(0.39713 -1.08914 0)
(0.0356872 -0.528454 0)
(0.0633702 -0.879879 0)
(0.0639682 -0.857589 0)
(0.0695166 -0.8217 0)
(0.0803664 -0.820324 0)
(0.0932205 -0.827728 0)
(0.105866 -0.83544 0)
(0.118643 -0.843509 0)
(0.131776 -0.852554 0)
(0.145216 -0.862762 0)
(0.158942 -0.874188 0)
(0.172977 -0.886867 0)
(0.187367 -0.900815 0)
(0.202154 -0.916037 0)
(0.217381 -0.932528 0)
(0.232979 -0.950325 0)
(0.249253 -0.96942 0)
(0.265661 -0.990012 0)
(0.284112 -1.01199 0)
(0.300987 -1.03575 0)
(0.32445 -1.0606 0)
(0.339624 -1.08757 0)
(0.373015 -1.11327 0)
(0.0346603 -0.581729 0)
(0.0576396 -0.89399 0)
(0.0561918 -0.859037 0)
(0.0634449 -0.831283 0)
(0.073901 -0.833407 0)
(0.0857509 -0.841041 0)
(0.0973554 -0.84878 0)
(0.109086 -0.857097 0)
(0.121113 -0.86645 0)
(0.133382 -0.876969 0)
(0.145886 -0.888717 0)
(0.158649 -0.90174 0)
(0.171708 -0.916055 0)
(0.185103 -0.931672 0)
(0.198865 -0.948602 0)
(0.212977 -0.96692 0)
(0.227692 -0.986658 0)
(0.242659 -1.00815 0)
(0.25957 -1.03111 0)
(0.275185 -1.05656 0)
(0.297395 -1.08237 0)
(0.3117 -1.11272 0)
(0.344821 -1.13779 0)
(0.0327989 -0.631384 0)
(0.0515518 -0.903689 0)
(0.0487007 -0.861174 0)
(0.0574163 -0.841294 0)
(0.0672241 -0.845651 0)
(0.0780765 -0.853247 0)
(0.0886943 -0.861022 0)
(0.0994077 -0.869548 0)
(0.110347 -0.879141 0)
(0.121461 -0.889903 0)
(0.132746 -0.901901 0)
(0.144222 -0.915184 0)
(0.15592 -0.929779 0)
(0.16787 -0.945704 0)
(0.180092 -0.963005 0)
(0.192609 -0.981788 0)
(0.205579 -1.00216 0)
(0.218923 -1.02451 0)
(0.233754 -1.04855 0)
(0.24801 -1.07565 0)
(0.267469 -1.1029 0)
(0.281808 -1.13669 0)
(0.310562 -1.16302 0)
(0.030304 -0.676817 0)
(0.0454265 -0.909623 0)
(0.0417324 -0.864231 0)
(0.0514717 -0.851341 0)
(0.0604561 -0.856925 0)
(0.0703201 -0.864361 0)
(0.0799764 -0.872172 0)
(0.0896825 -0.880855 0)
(0.0995427 -0.890619 0)
(0.109509 -0.90155 0)
(0.119575 -0.913714 0)
(0.129752 -0.927163 0)
(0.140058 -0.941929 0)
(0.150512 -0.958051 0)
(0.161116 -0.975607 0)
(0.171908 -0.994734 0)
(0.182953 -1.01563 0)
(0.194387 -1.03864 0)
(0.206643 -1.06374 0)
(0.219146 -1.0921 0)
(0.234495 -1.12141 0)
(0.248937 -1.15779 0)
(0.269734 -1.18841 0)
(0.027381 -0.717671 0)
(0.0394968 -0.912521 0)
(0.0354074 -0.868171 0)
(0.0456335 -0.86103 0)
(0.0536981 -0.867133 0)
(0.0625701 -0.874373 0)
(0.0712642 -0.882205 0)
(0.0799587 -0.890982 0)
(0.0887407 -0.900848 0)
(0.0975659 -0.911872 0)
(0.10642 -0.924113 0)
(0.1153 -0.937622 0)
(0.124208 -0.95244 0)
(0.133137 -0.968622 0)
(0.142075 -0.986276 0)
(0.151034 -1.00557 0)
(0.160028 -1.02675 0)
(0.169237 -1.05014 0)
(0.178628 -1.07601 0)
(0.188639 -1.10506 0)
(0.199185 -1.13661 0)
(0.21227 -1.1743 0)
(0.223552 -1.21187 0)
(0.0242165 -0.753853 0)
(0.0339147 -0.913138 0)
(0.029758 -0.872792 0)
(0.0399138 -0.870056 0)
(0.0470261 -0.876243 0)
(0.0548875 -0.883294 0)
(0.0626024 -0.89112 0)
(0.070276 -0.899933 0)
(0.0779813 -0.909831 0)
(0.0856775 -0.920871 0)
(0.0933394 -0.9331 0)
(0.100947 -0.946566 0)
(0.108478 -0.961313 0)
(0.1159 -0.97741 0)
(0.123174 -0.994979 0)
(0.130271 -1.0142 0)
(0.137168 -1.03535 0)
(0.143935 -1.05874 0)
(0.150371 -1.08482 0)
(0.157037 -1.11397 0)
(0.162788 -1.14707 0)
(0.171734 -1.18511 0)
(0.174464 -1.22973 0)
(0.0209614 -0.785494 0)
(0.0287545 -0.91221 0)
(0.0247504 -0.877855 0)
(0.0343162 -0.87826 0)
(0.0404852 -0.884317 0)
(0.0473119 -0.891203 0)
(0.0540269 -0.898996 0)
(0.0606728 -0.907795 0)
(0.0673065 -0.91767 0)
(0.0738916 -0.92866 0)
(0.0803923 -0.940802 0)
(0.0867709 -0.954137 0)
(0.0929798 -0.968709 0)
(0.0989592 -0.984589 0)
(0.10464 -1.0019 0)
(0.109946 -1.02081 0)
(0.114802 -1.04157 0)
(0.119106 -1.06449 0)
(0.122617 -1.09004 0)
(0.125415 -1.11863 0)
(0.126592 -1.15173 0)
(0.128715 -1.18945 0)
(0.124578 -1.23764 0)
(0.0177107 -0.812824 0)
(0.0240094 -0.910375 0)
(0.0203006 -0.883101 0)
(0.0288334 -0.885571 0)
(0.0340866 -0.891432 0)
(0.0398575 -0.898182 0)
(0.045552 -0.90592 0)
(0.0511672 -0.914675 0)
(0.0567402 -0.924486 0)
(0.0622376 -0.935378 0)
(0.0676153 -0.94738 0)
(0.0728203 -0.960523 0)
(0.077786 -0.974849 0)
(0.0824306 -0.990417 0)
(0.0866568 -1.00732 0)
(0.0903457 -1.02569 0)
(0.0933489 -1.04572 0)
(0.0954145 -1.06766 0)
(0.0962057 -1.09189 0)
(0.0952667 -1.11893 0)
(0.0920502 -1.15005 0)
(0.0864816 -1.18599 0)
(0.0755812 -1.23197 0)
(0.01449 -0.835878 0)
(0.019593 -0.907923 0)
(0.0162984 -0.888056 0)
(0.0234509 -0.891734 0)
(0.0278072 -0.897417 0)
(0.0325127 -0.904057 0)
(0.0371726 -0.911725 0)
(0.0417591 -0.920408 0)
(0.0462872 -0.930121 0)
(0.0507235 -0.940879 0)
(0.0550179 -0.952702 0)
(0.0591092 -0.965618 0)
(0.0629243 -0.979654 0)
(0.0663759 -0.994841 0)
(0.0693526 -1.01122 0)
(0.0717033 -1.02885 0)
(0.0732099 -1.0478 0)
(0.0735189 -1.06824 0)
(0.0721408 -1.09038 0)
(0.0683302 -1.1147 0)
(0.0613996 -1.14191 0)
(0.0497283 -1.17325 0)
(0.0317964 -1.21126 0)
(0.0112827 -0.854336 0)
(0.015373 -0.904663 0)
(0.0126225 -0.8919 0)
(0.018157 -0.896163 0)
(0.0216085 -0.90172 0)
(0.025251 -0.908276 0)
(0.0288744 -0.915865 0)
(0.0324432 -0.924452 0)
(0.0359493 -0.934038 0)
(0.0393548 -0.944633 0)
(0.042608 -0.956256 0)
(0.0456537 -0.968923 0)
(0.0484329 -0.982638 0)
(0.050874 -0.997382 0)
(0.0528706 -1.01312 0)
(0.0542547 -1.0298 0)
(0.0547652 -1.04742 0)
(0.0540039 -1.066 0)
(0.0514059 -1.08558 0)
(0.0461859 -1.10631 0)
(0.0373587 -1.12834 0)
(0.0230762 -1.15232 0)
(0.00114044 -1.17854 0)
(0.00810829 -0.868168 0)
(0.0112378 -0.900635 0)
(0.00913451 -0.894168 0)
(0.0129402 -0.898616 0)
(0.0154496 -0.904082 0)
(0.0180478 -0.910553 0)
(0.0206466 -0.918041 0)
(0.0232108 -0.926523 0)
(0.025714 -0.935995 0)
(0.0281174 -0.946461 0)
(0.0303806 -0.957916 0)
(0.0324726 -0.970341 0)
(0.0343678 -0.983686 0)
(0.0360219 -0.997887 0)
(0.0373372 -1.01287 0)
(0.0381378 -1.02858 0)
(0.0381602 -1.04493 0)
(0.037048 -1.06178 0)