/*--------------------------------*- C++ -*----------------------------------*\
| =========                 |                                                 |
| \\      /  F ield         | OpenFOAM: The Open Source CFD Toolbox           |
|  \\    /   O peration     | Version:  2206                                  |
|   \\  /    A nd           | Website:  www.openfoam.com                      |
|    \\/     M anipulation  |                                                 |
\*---------------------------------------------------------------------------*/
FoamFile
{
    version     2.0;
    format      ascii;
    arch        "LSB;label=32;scalar=64";
    class       volScalarField;
    location    "1";
    object      p;
}
// * * * * * * * * * * * * * * * * * * * * * * * * * * * * * * * * * * * * * //

dimensions      [1 -1 -2 0 0 0 0];

internalField   nonuniform List<scalar> 
2268
(
965.119
957.839
950.435
943.317
936.928
932.119
926.753
920.093
913.341
906.509
901.387
900.27
904.459
913.783
930.473
952.338
976.319
1001.2
1020.62
1028.47
1029.08
1026.53
1023.13
907.136
898.775
891.463
883.66
877.283
873.072
868.083
861.332
854.342
847.088
841.337
839.694
844.403
855.702
872.726
893.039
915.993
943.157
964.084
971.155
969.96
965.768
962.447
850.252
843.952
833.546
823.065
816.382
813.671
809.666
802.683
795.049
786.698
779.687
777.019
782.019
795.693
813.713
834.735
861.008
888.999
908.631
914.06
910.876
904.474
900.439
794.391
788.294
775.667
761.739
754.369
753.916
751.583
744.513
735.771
725.672
716.63
712.085
716.2
731.124
752.748
778.323
808.532
837.233
854.715
857.678
851.829
842.596
837.375
739.337
733.103
717.599
700.008
691.754
694.152
694.166
687.019
676.774
664.27
652.319
644.911
647.514
663.684
690.319
722.323
757.213
787.76
803.513
802.926
793.085
779.726
773.008
685.136
678.015
659.429
638.462
629.515
634.853
637.438
630.435
618.223
602.62
586.804
575.399
575.938
594.029
626.109
664.601
706.577
741.49
755.454
749.917
734.609
715.282
706.52
631.802
622.886
600.556
576.855
568.27
576.307
581.106
574.372
560.014
540.669
519.902
502.921
500.391
521.063
559.812
605.843
657.299
700.542
714.158
701.001
677.162
649.991
638.299
580.018
567.704
539.786
514.842
507.707
518.146
524.757
518.255
502.005
478.547
451.769
426.99
419.936
444.744
492.23
545.225
608.635
671.443
684.937
660.987
624.567
585.808
568.853
775.881
749.247
728.527
757.733
713.121
611.456
583.08
582.134
522.935
441.746
428.402
473.418
455.757
398.199
349.175
332.111
339.976
354.302
379.09
721.59
688.204
665.92
697.057
638.243
535.218
524.345
535.821
479.545
382.99
370.728
428.357
403.628
342.456
290.506
275.753
283.672
299.437
331.116
669.616
630.742
609.262
636.079
557.055
450.195
469.263
486.188
430.584
326.2
315.829
371.81
343.807
287.475
242.886
231.726
240.669
256.612
295.509
618.482
576.913
552.612
577.111
493.488
387.64
404.864
413.668
368.341
277.39
268.537
318.369
300.669
250.615
210.621
210.315
224.854
237.798
271.987
569.2
528.724
500.898
529.055
461.981
356.78
338.673
342.175
316.991
240.277
231.96
271.719
260.918
215.186
184.756
198.999
216.813
230.753
247.723
522.985
486.79
454.54
495.24
458.916
334.322
295.407
301.045
278.309
207.79
200.635
231.565
219.41
173.406
167.211
186.256
208.121
222.519
218.218
480.15
450.509
413.108
464.747
460.042
311.217
273.074
270.205
239.569
173.776
166.229
192.48
180.807
141.446
149.525
168.603
194.854
207.373
191.666
437.631
414.86
378.157
424.904
438.666
290.732
256.055
242.515
198.856
141.076
133.553
151.091
138.919
124.602
130.079
145.024
171.863
183.743
172.186
495.844
470.155
438.299
416.853
415.76
428.283
436.543
430.486
411.368
381.521
344.479
301.621
280.898
310.809
387.549
494.614
580.062
620.847
633.155
600.894
539.966
485.291
448.843
338.836
279.367
271.685
272.592
286.227
310.933
320.723
322.983
299.589
245.554
189.871
148.676
160.58
198.749
247.677
317.369
410.65
493.208
500.078
444.422
368.618
312.114
281.138
199.548
87.1499
77.5618
106.187
133.903
181.464
223.984
215.28
162.458
120.467
105.249
99.6839
110.51
136.392
160.004
179.036
207.129
280.313
294.398
245.072
178.278
136.232
121.825
155.459
61.0432
-0.39895
-22.305
3.64902
42.6119
72.2677
73.8092
63.9913
60.6882
61.9207
65.8991
69.3313
75.7535
75.2493
57.2317
54.0598
84.2362
111.981
115.073
95.2141
92.6144
94.5853
133.763
59.0244
24.034
-8.7281
-11.2736
2.85018
11.0456
11.164
10.8359
14.8853
16.3831
18.9579
21.475
17.9426
11.3496
5.09893
7.30849
10.171
20.405
54.9747
82.2673
82.2206
83.5682
80.4406
43.2064
24.82
8.09847
4.53211
12.0927
8.27859
3.60992
2.29527
0.955291
0.920842
3.19378
5.93184
4.15022
1.17158
0.448493
0.567879
0.247427
-1.14321
8.87597
54.7328
74.1681
80.0312
57.6559
26.8377
14.9028
6.11315
3.33858
9.05207
5.8978
1.75568
0.13463
-1.01452
-1.44504
-0.934603
0.379303
-0.235613
-0.81553
-0.826332
-0.941553
-1.14186
-1.70402
2.07581
32.8799
50.5791
64.5676
25.0045
9.57674
4.66003
1.33449
0.313855
0.583204
-0.179901
-1.19872
-1.54079
-1.98433
-2.19074
-2.19903
-2.16336
-2.14562
-1.86958
-1.67015
-1.7081
-1.79719
-1.70177
-0.0588138
12.7499
33.1403
44.1209
6.35095
1.40819
0.580521
-0.278973
-0.912802
-1.67349
-2.22825
-2.0975
-2.17956
-2.37301
-2.46098
-2.44521
-2.40843
-2.34416
-2.22309
-2.12015
-2.14409
-2.17377
-2.09076
-1.91503
-1.73377
3.47163
16.0249
2.77023
-0.286983
-0.433134
-0.821982
-1.19205
-1.70331
-2.18778
-2.29933
-2.39675
-2.62006
-2.72549
-2.73008
-2.68661
-2.6011
-2.49729
-2.43427
-2.42433
-2.39635
-2.32367
-2.27595
-2.25654
-2.28229
-2.36182
1.76049
-0.878468
-0.888329
-1.26905
-1.58944
-1.94748
-2.23771
-2.42439
-2.62662
-2.85572
-2.95039
-2.94565
-2.89314
-2.81146
-2.72594
-2.66599
-2.63055
-2.58579
-2.51825
-2.4504
-2.4053
-2.39621
-2.35775
0.351865
-1.38724
-1.43337
-1.78574
-2.04549
-2.31053
-2.51221
-2.6892
-2.88232
-3.04818
-3.10532
-3.09058
-3.04287
-2.97736
-2.90707
-2.84485
-2.79474
-2.74587
-2.68991
-2.62968
-2.57121
-2.51254
-2.42802
0.190194
-1.53901
-1.99189
-2.32329
-2.51492
-2.70934
-2.85186
-2.99292
-3.12382
-3.21501
-3.24467
-3.2377
-3.20904
-3.15877
-3.09412
-3.027
-2.9644
-2.90364
-2.84054
-2.77637
-2.71437
-2.65094
-2.57279
1.09923
-1.10403
-2.38083
-2.73158
-2.91903
-3.07501
-3.17528
-3.2803
-3.3654
-3.42352
-3.45404
-3.46059
-3.43958
-3.38861
-3.31683
-3.23648
-3.15611
-3.07747
-2.99991
-2.92392
-2.85021
-2.77794
-2.70507
16.2287
-1.44371
-3.27606
-3.1338
-3.29166
-3.40672
-3.48022
-3.57122
-3.65357
-3.72637
-3.77747
-3.79222
-3.76264
-3.69285
-3.59396
-3.48304
-3.37227
-3.26669
-3.16734
-3.07452
-2.98809
-2.90759
-2.83205
8.54619
-6.49298
-4.24849
-3.58046
-3.7037
-3.74905
-3.81249
-3.92158
-4.04711
-4.17741
-4.27435
-4.30245
-4.24984
-4.12814
-3.96232
-3.78615
-3.62046
-3.4725
-3.34168
-3.22609
-3.12387
-3.03326
-2.95238
-5.8517
-7.20318
-4.46133
-4.12396
-4.12154
-4.12605
-4.21257
-4.38561
-4.60973
-4.85474
-5.04442
-5.09885
-5.00134
-4.77579
-4.47616
-4.17424
-3.9111
-3.69539
-3.51984
-3.37499
-3.25425
-3.15256
-3.06591
-6.21503
-5.687
-4.48033
-4.53403
-4.48091
-4.53012
-4.68709
-4.98311
-5.36663
-5.78984
-6.1342
-6.25989
-6.11743
-5.72551
-5.19558
-4.67506
-4.25139
-3.93208
-3.69488
-3.5142
-3.37341
-3.26126
-3.16991
-6.17543
-5.41529
-4.6753
-4.83321
-4.7755
-4.92734
-5.20198
-5.6856
-6.31355
-7.01268
-7.59468
-7.83709
-7.64086
-7.01136
-6.1367
-5.28232
-4.62146
-4.16367
-3.85166
-3.63324
-3.47482
-3.35549
-3.26244
-1.75495
-4.82806
-4.74696
-5.05187
-5.00549
-5.26545
-5.67266
-6.37655
-7.28919
-8.24681
-9.01915
-9.35847
-9.13641
-8.31336
-7.10533
-5.89106
-4.95629
-4.34754
-3.96622
-3.71999
-3.55273
-3.43259
-3.34267
-0.759002
-4.41333
-4.5858
-5.15457
-5.1382
-5.48147
-5.97514
-6.84944
-7.94363
-9.01355
-9.84425
-10.2052
-9.97613
-9.07059
-7.70209
-6.27901
-5.16275
-4.44076
-4.01949
-3.767
-3.604
-3.4922
-3.41134
8.72595
-4.3585
-4.85925
-5.1945
-5.22371
-5.54415
-6.01951
-6.9243
-8.06591
-9.16994
-10.0179
-10.3915
-10.122
-9.17579
-7.78613
-6.34392
-5.17854
-4.42358
-4.00486
-3.77333
-3.63152
-3.5376
-3.47149
15.612
-5.42601
-4.95135
-5.18432
-5.2325
-5.43487
-5.78301
-6.53655
-7.56749
-8.60263
-9.39159
-9.72077
-9.45205
-8.57744
-7.33264
-6.03667
-4.97899
-4.29948
-3.93747
-3.75182
-3.64477
-3.57587
-3.52825
18.7509
-6.54956
-4.67504
-5.12009
-5.18264
-5.22301
-5.41295
-5.93628
-6.72733
-7.57736
-8.24846
-8.52033
-8.30676
-7.60026
-6.57577
-5.50861
-4.65004
-4.11579
-3.85091
-3.72571
-3.65854
-3.61673
-3.5881
10.071
-7.25792
-3.76136
-4.7351
-4.95751
-4.92583
-5.04148
-5.41612
-6.01469
-6.68804
-7.22743
-7.44349
-7.2328
-6.61996
-5.77728
-4.94402
-4.31373
-3.94892
-3.78637
-3.71992
-3.68836
-3.66987
-3.65727
-1.94768
-6.19442
-3.30965
-4.34465
-4.40446
-4.3884
-4.5586
-4.92326
-5.43602
-5.999
-6.43176
-6.55544
-6.32108
-5.78382
-5.11316
-4.5049
-4.08604
-3.8684
-3.78065
-3.75385
-3.74549
-3.74207
-3.73996
-3.11474
-3.44777
-3.1308
-4.06828
-4.08833
-3.99029
-4.13229
-4.48942
-4.99025
-5.52045
-5.90941
-5.99765
-5.76037
-5.2896
-4.75498
-4.31126
-4.03087
-3.89939
-3.84742
-3.83438
-3.83323
-3.83507
-3.83725
-3.26734
-3.17171
-3.11368
-3.30499
-3.52782
-3.69403
-3.92089
-4.31222
-4.86145
-5.40817
-5.75388
-5.80563
-5.56376
-5.13674
-4.68847
-4.34039
-4.12946
-4.01753
-3.96905
-3.95116
-3.94564
-3.94549
-3.94722
-3.34304
-3.27578
-3.15605
-3.21308
-3.39789
-3.61325
-3.88044
-4.26678
-4.77759
-5.29576
-5.64177
-5.6937
-5.47727
-5.11257
-4.73959
-4.45154
-4.2683
-4.16432
-4.11047
-4.0844
-4.07221
-4.06741
-4.0663
-3.48679
-3.46142
-3.39853
-3.42763
-3.557
-3.73962
-3.9808
-4.30803
-4.71634
-5.12524
-5.40532
-5.46996
-5.32273
-5.05893
-4.78371
-4.56274
-4.41004
-4.31402
-4.25701
-4.22361
-4.20521
-4.19554
-4.19095
-3.66052
-3.64643
-3.63108
-3.67413
-3.77681
-3.92615
-4.1256
-4.38345
-4.68278
-4.96516
-5.1667
-5.23009
-5.15013
-4.98995
-4.81141
-4.65472
-4.53569
-4.4524
-4.39702
-4.36118
-4.33908
-4.32578
-4.31818
-3.85145
-3.84313
-3.84932
-3.89679
-3.98851
-4.11669
-4.27952
-4.47518
-4.68803
-4.88411
-5.02127
-5.0746
-5.03908
-4.95195
-4.84216
-4.73601
-4.6472
-4.57893
-4.52924
-4.49457
-4.47094
-4.45557
-4.44591
-4.05077
-4.04815
-4.06375
-4.11139
-4.19166
-4.29885
-4.42928
-4.57799
-4.7322
-4.86969
-4.96751
-5.0117
-5.00237
-4.955
-4.88741
-4.81586
-4.75068
-4.69645
-4.65403
-4.62233
-4.59944
-4.58354
-4.57286
-4.24904
-4.25082
-4.27041
-4.31479
-4.38296
-4.47053
-4.5738
-4.68733
-4.80103
-4.90099
-4.97386
-5.01134
-5.01351
-4.98821
-4.94619
-4.89767
-4.85017
-4.80805
-4.77311
-4.74552
-4.72455
-4.70923
-4.69841
-4.4428
-4.44718
-4.46727
-4.5065
-4.5631
-4.63349
-4.71437
-4.801
-4.88587
-4.95997
-5.01522
-5.04659
-5.05391
-5.04138
-5.01541
-4.98262
-4.94839
-4.91629
-4.88829
-4.86511
-4.84674
-4.83271
-4.82243
-4.63076
-4.6362
-4.65479
-4.68805
-4.73401
-4.78969
-4.85233
-4.91812
-4.98171
-5.03719
-5.07942
-5.10527
-5.11441
-5.10918
-5.09344
-5.07149
-5.04708
-5.02301
-5.00106
-4.98215
-4.96661
-4.95433
-4.94506
-4.81236
-4.81784
-4.83394
-4.86113
-4.89755
-4.94079
-4.98864
-5.03822
-5.08577
-5.12733
-5.15955
-5.18039
-5.18952
-5.18826
-5.17896
-5.16441
-5.1472
-5.12944
-5.1126
-5.0976
-5.08488
-5.07457
-5.06661
-4.98795
-4.99285
-5.00603
-5.02743
-5.05542
-5.08815
-5.12395
-5.16071
-5.1958
-5.22657
-5.2508
-5.26713
-5.27527
-5.27597
-5.27066
-5.26114
-5.24919
-5.23634
-5.22374
-5.2122
-5.20218
-5.19391
-5.18743
-5.15835
-5.16228
-5.17241
-5.18845
-5.20905
-5.23286
-5.25868
-5.28504
-5.31015
-5.33225
-5.34988
-5.36212
-5.36876
-5.37019
-5.36729
-5.3612
-5.35312
-5.3441
-5.33503
-5.32653
-5.31902
-5.31274
-5.30779
-5.32461
-5.32736
-5.33447
-5.34558
-5.35964
-5.37574
-5.39311
-5.41078
-5.42761
-5.44247
-5.45444
-5.46294
-5.46779
-5.46921
-5.46772
-5.464
-5.45882
-5.45287
-5.44677
-5.44096
-5.43576
-5.43138
-5.42793
-5.48764
-5.48912
-5.49337
-5.49994
-5.5081
-5.51737
-5.52735
-5.53749
-5.54715
-5.55571
-5.56265
-5.56765
-5.5706
-5.57159
-5.57091
-5.56891
-5.56603
-5.56265
-5.55913
-5.55574
-5.55269
-5.5501
-5.54805
-5.64942
-5.64975
-5.651
-5.65309
-5.65573
-5.65872
-5.6619
-5.66513
-5.6682
-5.67093
-5.67314
-5.67474
-5.67569
-5.67601
-5.67579
-5.67514
-5.6742
-5.67311
-5.67196
-5.67085
-5.66985
-5.66901
-5.66835
423.581
412.008
402.003
392.545
276.495
275.53
273.147
267.555
118.068
120.921
127.806
138.605
109.77
117.221
113.77
111.741
84.8198
86.166
88.7361
91.8977
83.5164
85.401
87.122
89.8449
73.3686
76.4976
78.8251
82.4918
50.1498
53.5155
56.9556
61.7204
20.1819
25.3504
29.5267
31.358
-1.9326
0.0880721
1.31313
-0.114711
-2.27052
-2.20786
-2.18333
-2.13925
-2.37395
-2.35179
-2.31905
-2.29508
-2.5175
-2.48583
-2.4568
-2.43058
-2.65348
-2.62272
-2.59366
-2.56609
-2.77917
-2.74735
-2.71754
-2.68924
-2.89887
-2.8664
-2.8358
-2.8068
-3.01064
-2.97744
-2.94641
-2.91722
-3.11354
-3.08006
-3.04909
-3.0203
-3.2068
-3.17417
-3.14437
-3.11702
-3.2906
-3.26042
-3.23314
-3.20841
-3.36599
-3.33998
-3.31658
-3.29553
-3.43544
-3.41493
-3.39643
-3.37982
-3.50291
-3.48857
-3.47542
-3.46352
-3.57325
-3.56484
-3.55678
-3.54929
-3.65102
-3.64744
-3.64356
-3.63968
-3.73937
-3.73896
-3.73793
-3.73656
-3.83917
-3.84025
-3.84068
-3.8407
-3.94921
-3.95044
-3.95123
-3.95174
-4.06699
-4.0676
-4.06806
-4.06845
-4.18982
-4.18949
-4.1893
-4.18924
-4.31532
-4.31406
-4.31315
-4.31255
-4.44172
-4.4397
-4.43816
-4.43705
-4.56784
-4.5653
-4.56332
-4.56182
-4.69304
-4.69025
-4.68802
-4.68629
-4.81712
-4.81432
-4.81205
-4.81025
-4.94014
-4.93753
-4.93539
-4.93369
-5.06234
-5.06005
-5.05818
-5.05669
-5.18393
-5.18207
-5.18055
-5.17935
-5.30514
-5.30374
-5.30261
-5.30175
-5.42613
-5.4252
-5.42447
-5.42395
-5.54703
-5.54654
-5.54622
-5.54605
-5.66807
-5.66802
-5.66811
-5.66833
373.332
348.318
322.624
347.24
368.48
259.652
229.113
205.306
158.753
138.352
132.5
126.236
120.314
120.229
121.91
125.384
135.755
155.205
164.729
249.397
202.383
143.259
141.726
210.799
197.76
185.238
160.947
128.664
121.581
117.511
115.997
117.868
118.771
119.085
119.55
123.501
148.307
165.058
155.655
143.372
81.4867
27.3491
106.564
153.743
150.204
127.757
120.771
119.064
117.708
117.195
117.472
117.801
117.831
117.446
119.781
151.991
179.728
107.709
96.8122
76.5002
70.4723
109.776
133.569
126.867
119.44
118.449
117.783
117.018
116.757
116.983
117.285
117.332
117.148
119.34
153.346
206.131
95.8795
95.6492
94.4069
105.777
121.113
122.911
119.676
118.155
117.978
117.171
116.334
116.087
116.378
116.797
116.996
117.378
120.173
177.3
245.17
95.3177
101.594
109.104
118.494
119.586
119.397
118.967
118.675
118.119
116.978
116.025
115.74
116.004
116.425
116.743
118.148
122.117
185.457
261.744
92.1007
101.305
110.421
118.506
119.579
119.454
119.047
118.695
118.156
117.128
116.23
115.887
115.999
116.171
116.485
117.173
106.922
130.468
171.169
71.6353
82.0152
93.1916
108.484
118.726
119.017
118.614
118.501
118.176
117.451
116.781
116.449
116.305
115.874
115.016
97.647
56.899
27.9421
39.063
40.9282
52.4491
64.2878
82.391
101.445
114.261
117.889
118.257
118.069
117.698
117.255
116.99
115.908
110.645
96.0883
52.9996
2.25921
-30.7769
-3.0454
4.82179
13.3433
22.0061
39.6682
61.6106
88.6038
107.33
114.884
117.046
116.698
115.657
112.663
99.7031
78.3568
48.2662
12.7008
-4.35731
-14.6775
-5.96046
-2.14258
-2.13514
-1.69217
7.04466
19.2313
44.4327
69.0285
86.0378
94.8284
94.638
91.3472
77.9296
50.9525
19.9274
7.7658
-1.83017
-3.83807
-5.45376
-3.26523
-2.27482
-2.22993
-2.13023
-2.27208
-1.84115
9.79962
20.19
31.3735
35.048
28.937
19.3131
11.9305
5.64013
-1.6185
-2.56169
-2.53968
-2.98132
-2.88892
-2.26161
-2.39067
-2.34105
-2.29708
-2.25662
-2.12265
-2.21491
-1.99173
1.73386
2.37105
-0.582531
-1.58953
-1.47538
-1.69462
-2.21014
-2.47488
-2.50675
-2.6099
-2.40219
-2.1989
-2.52185
-2.46609
-2.41644
-2.36875
-2.31516
-2.29568
-2.24129
-2.29582
-2.27618
-2.29921
-1.99245
-1.8549
-1.99948
-2.24889
-2.37528
-2.40577
-2.38887
-2.31993
-2.28035
-2.64443
-2.58828
-2.53713
-2.48921
-2.44382
-2.41085
-2.38171
-2.365
-2.33373
-2.25673
-2.12473
-2.13077
-2.23922
-2.43179
-2.54202
-2.53071
-2.46532
-2.4117
-2.37944
-2.76097
-2.70423
-2.65323
-2.60739
-2.56502
-2.52862
-2.49648
-2.46799
-2.43508
-2.38692
-2.34976
-2.35808
-2.44524
-2.59022
-2.7029
-2.71555
-2.62863
-2.51601
-2.46882
-2.87141
-2.81572
-2.76641
-2.7227
-2.68322
-2.64824
-2.61621
-2.58569
-2.55422
-2.52347
-2.51242
-2.53556
-2.60375
-2.71155
-2.81802
-2.8696
-2.81777
-2.66824
-2.57864
-2.97565
-2.92259
-2.87667
-2.83638
-2.80026
-2.76777
-2.73768
-2.70934
-2.68329
-2.66478
-2.66396
-2.68793
-2.7424
-2.8218
-2.90441
-2.96903
-2.97363
-2.86703
-2.73696
-3.07506
-3.02627
-2.98491
-2.94913
-2.91734
-2.8888
-2.86299
-2.83949
-2.81913
-2.80765
-2.81206
-2.83532
-2.87687
-2.93065
-2.9847
-3.02526
-3.04944
-2.99916
-2.89108
-3.17079
-3.12782
-3.09198
-3.0614
-3.03472
-3.01119
-2.99048
-2.97225
-2.9576
-2.95219
-2.96039
-2.98184
-3.01277
-3.04701
-3.07746
-3.09622
-3.10034
-3.08501
-3.02579
-3.26365
-3.22764
-3.19802
-3.17307
-3.15181
-3.13375
-3.11885
-3.10683
-3.09918
-3.10206
-3.11525
-3.13438
-3.1541
-3.17053
-3.18155
-3.18106
-3.16971
-3.16834
-3.14227
-3.35466
-3.32621
-3.30302
-3.2838
-3.26797
-3.25547
-3.24659
-3.2414
-3.24491
-3.2601
-3.2806
-3.29657
-3.3031
-3.30152
-3.29427
-3.27972
-3.25425
-3.26525
-3.25186
-3.44531
-3.42437
-3.40733
-3.39334
-3.38234
-3.37474
-3.37121
-3.37346
-3.39081
-3.42132
-3.44972
-3.46181
-3.45514
-3.43586
-3.41318
-3.38586
-3.35363
-3.37073
-3.36376
-3.53751
-3.52335
-3.51165
-3.50198
-3.49465
-3.4904
-3.48996
-3.4982
-3.52598
-3.5677
-3.60191
-3.61177
-3.59603
-3.56432
-3.52777
-3.49167
-3.47212
-3.48119
-3.48003
-3.63317
-3.62456
-3.61708
-3.6106
-3.60558
-3.60268
-3.60252
-3.61179
-3.64061
-3.68319
-3.71858
-3.72907
-3.71184
-3.67232
-3.6282
-3.59644
-3.59738
-3.59849
-3.60008
-3.7338
-3.72927
-3.72488
-3.72063
-3.71687
-3.71391
-3.7122
-3.71705
-3.73671
-3.76868
-3.7974
-3.80773
-3.79283
-3.76346
-3.73047
-3.7124
-3.72297
-3.72194
-3.72274
-3.84016
-3.83831
-3.83604
-3.83339
-3.83053
-3.82747
-3.82448
-3.82411
-3.83257
-3.85197
-3.87494
-3.88949
-3.88721
-3.87251
-3.85602
-3.84753
-3.85043
-3.84706
-3.84591
-3.95214
-3.95177
-3.9509
-3.94948
-3.94758
-3.94517
-3.94249
-3.94075
-3.94433
-3.95752
-3.9781
-3.99714
-4.00496
-4.00007
-3.98934
-3.9802
-3.97657
-3.97088
-3.96825
-4.06891
-4.06914
-4.06907
-4.0686
-4.0677
-4.06643
-4.06512
-4.0646
-4.06794
-4.07871
-4.09653
-4.11449
-4.12383
-4.12204
-4.1137
-4.10458
-4.09778
-4.09201
-4.08928
-4.18926
-4.18947
-4.18977
-4.18993
-4.18989
-4.18972
-4.18977
-4.19094
-4.19503
-4.20372
-4.21713
-4.23068
-4.23847
-4.23789
-4.23115
-4.2229
-4.21607
-4.21151
-4.2096
-4.3119
-4.31175
-4.31208
-4.31258
-4.31314
-4.31379
-4.3148
-4.31681
-4.32078
-4.32744
-4.33642
-4.34556
-4.35124
-4.35112
-4.34619
-4.33976
-4.33435
-4.33118
-4.33021
-4.43574
-4.43508
-4.43523
-4.43584
-4.43674
-4.43788
-4.43941
-4.44162
-4.44487
-4.44956
-4.45547
-4.46152
-4.46577
-4.46621
-4.46281
-4.458
-4.45408
-4.45211
-4.45178
-4.55995
-4.55881
-4.55873
-4.55932
-4.56036
-4.56176
-4.56349
-4.56563
-4.56824
-4.57163
-4.5758
-4.58012
-4.58377
-4.58468
-4.58221
-4.57838
-4.57562
-4.57451
-4.57446
-4.68408
-4.6826
-4.68233
-4.68287
-4.68398
-4.68547
-4.68727
-4.6893
-4.69148
-4.69423
-4.69751
-4.70092
-4.70444
-4.7056
-4.70364
-4.70058
-4.69872
-4.69803
-4.698
-4.80792
-4.80631
-4.80596
-4.80651
-4.80764
-4.80917
-4.81096
-4.81289
-4.8148
-4.81724
-4.81998
-4.82297
-4.82654
-4.82774
-4.82609
-4.82385
-4.82265
-4.82214
-4.82207
-4.93147
-4.92993
-4.92964
-4.93024
-4.9314
-4.93292
-4.93468
-4.9365
-4.93824
-4.9405
-4.94286
-4.94565
-4.94901
-4.95009
-4.94893
-4.94759
-4.94685
-4.94647
-4.94638
-5.05475
-5.05345
-5.05333
-5.05403
-5.05524
-5.05674
-5.05848
-5.06023
-5.06192
-5.06407
-5.06616
-5.06867
-5.07153
-5.07249
-5.07205
-5.07148
-5.07108
-5.07088
-5.07082
-5.17781
-5.17689
-5.177
-5.17785
-5.17912
-5.18066
-5.18241
-5.18418
-5.18593
-5.18801
-5.18994
-5.19209
-5.19435
-5.19533
-5.19553
-5.19545
-5.19533
-5.19529
-5.19526
-5.30068
-5.30022
-5.30064
-5.30167
-5.30306
-5.3047
-5.30654
-5.30839
-5.31025
-5.31226
-5.3141
-5.31599
-5.31779
-5.31879
-5.31923
-5.31949
-5.31957
-5.31967
-5.31967
-5.42338
-5.42345
-5.42424
-5.42554
-5.42714
-5.42896
-5.43091
-5.43287
-5.43481
-5.43675
-5.43852
-5.44025
-5.44169
-5.4427
-5.44325
-5.44368
-5.44392
-5.44411
-5.44413
-5.54602
-5.54669
-5.54794
-5.54958
-5.55146
-5.55348
-5.55556
-5.55761
-5.55961
-5.56151
-5.5632
-5.56475
-5.56592
-5.56687
-5.56752
-5.56806
-5.56844
-5.56871
-5.56873
-5.66888
-5.6702
-5.67197
-5.67399
-5.67614
-5.67834
-5.68054
-5.68267
-5.68473
-5.6866
-5.68819
-5.68957
-5.69033
-5.69119
-5.69187
-5.69255
-5.69309
-5.69347
-5.69337
)
;

boundaryField
{
    leftWall
    {
        type            calculated;
        value           nonuniform List<scalar> 
50
(
965.119
907.136
850.252
794.391
739.337
685.136
631.802
580.018
495.844
338.836
199.548
155.459
133.763
80.4406
57.6559
25.0045
6.35095
2.77023
1.76049
0.351865
0.190194
1.09923
16.2287
8.54619
-5.8517
-6.21503
-6.17543
-1.75495
-0.759002
8.72595
15.612
18.7509
10.071
-1.94768
-3.11474
-3.26734
-3.34304
-3.48679
-3.66052
-3.85145
-4.05077
-4.24904
-4.4428
-4.63076
-4.81236
-4.98795
-5.15835
-5.32461
-5.48764
-5.64942
)
;
    }
    rightWall
    {
        type            calculated;
        value           nonuniform List<scalar> 
50
(
379.09
331.116
295.509
271.987
247.723
218.218
191.666
172.186
164.729
165.058
179.728
206.131
245.17
261.744
171.169
39.063
-3.0454
-5.96046
-3.26523
-2.26161
-2.1989
-2.28035
-2.37944
-2.46882
-2.57864
-2.73696
-2.89108
-3.02579
-3.14227
-3.25186
-3.36376
-3.48003
-3.60008
-3.72274
-3.84591
-3.96825
-4.08928
-4.2096
-4.33021
-4.45178
-4.57446
-4.698
-4.82207
-4.94638
-5.07082
-5.19526
-5.31967
-5.44413
-5.56873
-5.69337
)
;
    }
    lowerWall
    {
        type            calculated;
        value           nonuniform List<scalar> 
62
(
994.548
987.268
979.864
972.746
966.358
961.549
956.182
949.523
942.77
935.939
930.817
929.7
933.886
942.936
959.042
981.169
1005.38
1030.15
1049.1
1057.18
1058.4
1055.96
1052.56
1023.13
962.447
900.439
837.375
773.008
706.52
638.299
568.853
484.722
473.156
463.272
454.66
775.881
721.59
669.616
618.482
569.2
522.985
480.15
437.631
804.755
778.122
757.088
785.01
741.784
640.506
612.131
611.185
549.886
465.323
448.855
494.034
481.261
423.97
374.948
357.879
365.705
380.042
404.83
)
;
    }
    atmosphere
    {
        type            calculated;
        value           nonuniform List<scalar> 
46
(
-5.72904
-5.72904
-5.72904
-5.72904
-5.72904
-5.72904
-5.72904
-5.72904
-5.72904
-5.72904
-5.72904
-5.72904
-5.72904
-5.72904
-5.72904
-5.72904
-5.72904
-5.72904
-5.72904
-5.72904
-5.72904
-5.72904
-5.72904
-5.72905
-5.72915
-5.72937
-5.72972
-5.73056
-5.73221
-5.73426
-5.73642
-5.73868
-5.74095
-5.74321
-5.74534
-5.74747
-5.74932
-5.75083
-5.75219
-5.75243
-5.75327
-5.75397
-5.75476
-5.75542
-5.75593
-5.75562
)
;
    }
    defaultFaces
    {
        type            empty;
    }
}


// ************************************************************************* //
