/*--------------------------------*- C++ -*----------------------------------*\
| =========                 |                                                 |
| \\      /  F ield         | OpenFOAM: The Open Source CFD Toolbox           |
|  \\    /   O peration     | Version:  2206                                  |
|   \\  /    A nd           | Website:  www.openfoam.com                      |
|    \\/     M anipulation  |                                                 |
\*---------------------------------------------------------------------------*/
FoamFile
{
    version     2.0;
    format      ascii;
    arch        "LSB;label=32;scalar=64";
    class       volScalarField;
    location    "1";
    object      p_rgh;
}
// * * * * * * * * * * * * * * * * * * * * * * * * * * * * * * * * * * * * * //

dimensions      [1 -1 -2 0 0 0 0];

internalField   nonuniform List<scalar> 
2268
(
994.548
987.268
979.864
972.746
966.358
961.549
956.182
949.523
942.77
935.939
930.817
929.7
933.886
942.936
959.042
981.169
1005.38
1030.15
1049.1
1057.18
1058.4
1055.96
1052.56
995.424
987.063
979.751
971.948
965.571
961.36
956.371
949.621
942.63
935.376
929.625
927.982
932.276
939.949
956.738
977.06
1000.92
1028.14
1049.54
1056.63
1056.58
1054.06
1050.73
997.398
991.099
980.693
970.212
963.529
960.818
956.813
949.829
942.195
933.845
926.834
924.166
928.991
938.561
953.746
974.759
1001.42
1034.57
1055.78
1061.18
1058.02
1051.62
1047.58
1000.4
994.299
981.672
967.744
960.375
959.922
957.589
950.519
941.777
931.678
922.636
918.091
922.201
936.673
955.405
980.699
1013.91
1043.24
1060.72
1063.68
1057.83
1048.6
1043.38
1004.2
997.967
982.463
964.872
956.618
959.016
959.031
951.883
941.639
929.135
917.183
909.775
912.378
928.547
955.18
987.186
1022.08
1052.62
1068.38
1067.79
1057.95
1044.59
1037.87
1008.86
1001.74
983.151
962.185
953.237
958.563
961.161
954.158
941.946
926.343
910.527
899.122
899.661
917.752
949.831
988.322
1030.3
1065.21
1079.16
1073.62
1058.33
1039
1030.24
1014.38
1005.47
983.138
959.437
950.851
958.675
963.468
956.948
942.596
923.25
902.484
885.503
882.972
903.644
942.394
988.424
1039.87
1081.5
1087.11
1074.44
1056.37
1031.98
1020.88
1020.42
1008.97
981.227
956.283
949.147
959.299
965.707
959.604
943.446
919.987
893.21
868.431
861.376
886.184
933.669
986.65
1020.63
978.167
942.693
956.815
1002.48
997.86
1010.05
804.755
778.122
757.088
785.01
741.784
640.506
612.131
611.185
549.886
465.323
448.855
494.034
481.261
423.97
374.948
357.879
365.705
380.042
404.83
808.213
773.314
736.428
767.386
721.071
622.355
611.496
622.792
542.227
444.351
432.141
496.918
480.773
419.773
363.775
344.523
354.122
373.005
407.724
813.948
763.102
726.206
753.024
696.904
595.187
614.49
615.24
534.838
440.356
426.623
479.321
472.208
406.666
316.942
287.957
287.521
322.566
372.704
820.062
754.288
716.335
748.274
693.654
590.302
605.322
572.151
514.196
437.79
428.888
445.926
408.109
353.584
281.698
232.101
236.297
265.114
381.855
826.102
740.273
711.492
788.522
720.431
617.173
561.467
455.405
459.733
446.512
438.188
477.602
461.898
389.474
222.365
212.352
230.53
249.511
448.767
838.759
746.649
747.538
813.008
775.067
625.426
419.303
378.252
456.031
459.847
452.71
483.543
470.483
350.995
179.907
200.867
224.441
257.398
463.937
859.824
758.291
767.958
841.121
828.185
585.451
332.22
357.438
529.137
471.661
464.021
490.1
474.734
244.492
161.882
183.703
239.041
264.154
410.532
875.717
797.521
785.655
861.02
845.938
474.72
321.119
339.256
505.684
484.577
476.961
493.157
369.422
127.135
141.2
188.351
225.468
244.354
193.138
991.929
982.701
971.057
950.319
949.214
961.746
970.007
963.953
944.835
914.988
877.946
835.088
814.365
844.275
879.812
805.616
759.987
800.791
823.331
897.648
971.524
955.322
963.603
911.337
855.984
910.335
931.154
942.162
968.611
979.38
979.397
942.821
897.39
834.448
547.302
320.772
319.762
384.293
461.724
664.184
1053.81
1103.42
1047.29
972.087
914.502
880.259
877.141
790.375
828.965
889.099
916.237
964.096
962.716
883.185
677.623
354.705
241.733
222.062
239.053
267.528
292.291
334.527
746.675
989.803
1011.85
963.262
895.163
812.171
790.446
872.659
812.399
825.003
799.137
733.679
576.644
384.433
327.876
262.176
196.99
194.769
205.022
230.511
334.673
334.217
293.135
246.388
567.067
934.788
938.83
570.935
277.968
278.376
781.085
207.236
175.446
259.416
174.735
90.1019
41.4167
29.5365
43.2691
155.304
176.496
174.351
164.898
186.024
152.489
44.151
14.0659
103.96
620.697
803.7
199.525
94.0268
95.344
787.186
56.5169
54.5341
126.658
157.422
46.1458
28.8775
13.9123
5.79784
15.5672
27.086
33.6933
34.2144
20.8032
7.91532
2.86062
3.20235
6.95165
118.109
370.812
358.366
88.6927
93.4119
786.513
36.6681
24.9486
109.869
148.885
110.682
47.1526
11.7538
2.20617
0.695537
0.201063
11.3665
31.4144
26.5167
2.53826
1.07204
0.77543
1.51895
4.9402
125.143
489.318
527.122
306.916
899.233
17.9952
11.0779
25.21
38.7096
66.3633
58.153
5.65387
0.140005
-0.472255
-0.738193
0.202076
1.44703
2.16904
2.26663
0.00681051
-0.245579
-0.236784
0.337247
25.2446
389.128
574.544
586.991
977.86
10.6645
2.999
1.69316
1.19712
1.7209
7.06764
2.59251
-0.56107
-0.813908
-0.918347
-0.896274
-0.857951
-0.793775
-0.669365
-0.565061
-0.577287
-0.577993
-0.410966
-0.125086
0.000776322
135.32
479.129
1053.13
5.57056
1.56756
0.967893
0.617316
0.174325
-0.277135
-0.5489
-0.713551
-0.954619
-1.06344
-1.04898
-0.975621
-0.889808
-0.792513
-0.766014
-0.73104
-0.579312
-0.462839
-0.36028
-0.412787
-0.555651
-0.661425
1016.46
1.28206
1.03126
0.562493
0.241679
-0.10279
-0.395158
-0.614244
-0.835812
-1.06937
-1.16478
-1.14905
-1.05325
-0.971809
-0.898035
-0.875189
-0.82583
-0.614056
-0.445062
-0.355444
-0.366961
-0.554144
-0.548001
916.023
0.671289
0.523608
0.144323
-0.121052
-0.385865
-0.588217
-0.772802
-0.970706
-1.13743
-1.19469
-1.17982
-1.13227
-1.06675
-0.996458
-0.934241
-0.884131
-0.835257
-0.779298
-0.659483
-0.535395
-0.387065
-0.320492
1062.84
0.563809
0.0649633
-0.278085
-0.474078
-0.669319
-0.812818
-0.956005
-1.08788
-1.17919
-1.20886
-1.20189
-1.17324
-1.12297
-1.05832
-0.991191
-0.928597
-0.867838
-0.804732
-0.740558
-0.678458
-0.559991
-0.265244
1188.46
1.77761
-0.20937
-0.565215
-0.756053
-0.912492
-1.01344
-1.1191
-1.20438
-1.26252
-1.29304
-1.29959
-1.27858
-1.22761
-1.15583
-1.07548
-0.995109
-0.916473
-0.838914
-0.762925
-0.689208
-0.616083
-0.4512
1269.56
14.315
-0.97605
-0.845553
-1.00461
-1.11978
-1.1938
-1.28499
-1.36737
-1.44018
-1.49127
-1.50603
-1.47643
-1.40665
-1.30775
-1.19684
-1.08608
-0.980493
-0.881144
-0.78833
-0.701902
-0.621394
-0.54585
666.429
22.4402
-1.8529
-1.16858
-1.29187
-1.33743
-1.40101
-1.51016
-1.6357
-1.76602
-1.86296
-1.89105
-1.83833
-1.71665
-1.55084
-1.37468
-1.20905
-1.0611
-0.930292
-0.814704
-0.712483
-0.621839
-0.54094
15.8889
22.8652
-1.81587
-1.58774
-1.58471
-1.58933
-1.67588
-1.84896
-2.07311
-2.31814
-2.50778
-2.56184
-2.46409
-2.2381
-1.93849
-1.63715
-1.37438
-1.15878
-0.983255
-0.83841
-0.717666
-0.615959
-0.529261
3.50396
6.70519
-1.81769
-1.87206
-1.8188
-1.86807
-2.02517
-2.32122
-2.70477
-3.09623
-3.33014
-3.42204
-3.26316
-3.00434
-2.51126
-2.00977
-1.5888
-1.27019
-1.0331
-0.852425
-0.711639
-0.599481
-0.508112
24.6175
-2.57074
-1.88853
-2.0458
-1.98811
-2.14002
-2.41446
-2.89578
-3.24802
-3.66288
-4.25826
-4.54046
-4.34379
-3.88149
-3.15314
-2.39982
-1.83097
-1.37617
-1.06464
-0.846267
-0.687851
-0.568524
-0.475467
577.172
-1.88877
-1.83443
-2.13909
-2.0928
-2.35272
-2.7481
-3.25794
-3.67521
-4.62215
-5.8662
-6.27448
-6.0313
-5.06721
-3.89596
-2.68379
-1.99301
-1.43305
-1.05317
-0.807625
-0.640552
-0.520428
-0.430502
900.869
-0.671106
-1.54813
-2.11638
-2.10015
-2.44328
-2.86715
-3.08009
-4.15348
-5.21679
-6.42847
-6.99253
-6.76421
-5.81199
-4.35878
-2.93617
-1.86895
-1.35416
-0.975583
-0.72933
-0.56662
-0.45484
-0.373984
956.44
5.75339
-1.69451
-2.03102
-2.06028
-2.3805
-2.82275
-2.97793
-4.11265
-5.21668
-6.06464
-6.4522
-6.41809
-5.79592
-4.42391
-2.86389
-1.70061
-1.05021
-0.823964
-0.610437
-0.468932
-0.375047
-0.30894
1000.84
12.9929
-1.65805
-1.89542
-1.94379
-2.14594
-2.49357
-2.97696
-3.4649
-4.49288
-5.28831
-5.62404
-5.35532
-5.02259
-3.87482
-2.52627
-1.34676
-0.683907
-0.611828
-0.463367
-0.356943
-0.288118
-0.240501
1041.5
31.9129
-1.21857
-1.7034
-1.76848
-1.80832
-1.99775
-2.51824
-3.22865
-3.93882
-4.26326
-4.50014
-4.62915
-4.05229
-3.00815
-1.84129
-0.846471
-0.378288
-0.402187
-0.311736
-0.245472
-0.203776
-0.175157
638.413
130.14
0.434116
-1.15167
-1.41548
-1.38535
-1.49807
-1.86905
-2.45307
-3.09801
-3.5997
-3.78532
-3.56706
-2.94868
-2.09942
-1.01037
-0.352278
-0.172852
-0.239514
-0.180788
-0.150091
-0.13172
-0.11913
39.2974
136.895
51.171
9.4994
0.931254
0.27293
-0.493624
-0.760037
-1.37375
-2.25081
-2.65362
-2.7599
-2.51956
-1.97553
-1.14317
-0.364024
0.0220687
-0.0126133
-0.111192
-0.0896709
-0.0820529
-0.0787249
-0.0766276
5.35188
33.4102
53.647
37.6532
17.828
6.44193
0.706411
-0.362372
-0.997935
-1.58514
-1.97362
-2.05195
-1.8079
-1.069
-0.462444
-0.0186046
0.250104
-0.0119811
-0.0552386
-0.0452951
-0.0446376
-0.0465355
-0.0487281
1.64853
3.05357
7.72843
11.9695
9.56207
4.05412
0.663989
-0.362098
-0.838879
-1.32088
-1.67299
-1.72459
-1.20541
-0.695596
-0.24687
0.0943524
0.122635
-0.0829217
-0.0540653
-0.0372567
-0.0318949
-0.0317648
-0.0334985
0.894466
1.33544
1.50818
1.24602
0.827666
0.561924
0.193501
-0.221201
-0.66765
-0.780429
-1.0533
-1.10135
-0.884736
-0.524462
-0.156385
-0.0290382
-0.192541
-0.124044
-0.0713566
-0.0454622
-0.033289
-0.0284975
-0.0273906
0.713205
0.829979
0.896575
0.814307
0.636302
0.431202
0.184193
-0.143827
-0.294227
-0.392984
-0.670625
-0.735077
-0.588033
-0.338049
-0.357942
-0.37573
-0.244886
-0.149702
-0.092877
-0.0595034
-0.041103
-0.0314357
-0.0268396
0.634644
0.668066
0.682031
0.627473
0.516569
0.363985
0.163794
-0.0941357
-0.373894
-0.489844
-0.510176
-0.562673
-0.584978
-0.618226
-0.517752
-0.364826
-0.246243
-0.163071
-0.10771
-0.0718747
-0.0497778
-0.0364776
-0.0288754
0.563912
0.575809
0.568948
0.519425
0.426499
0.297906
0.134987
-0.0606836
-0.273535
-0.469614
-0.601329
-0.653721
-0.623047
-0.536797
-0.427443
-0.321456
-0.232694
-0.164431
-0.114738
-0.0800707
-0.0564423
-0.0410737
-0.0314136
0.489034
0.492238
0.476465
0.42852
0.348092
0.240849
0.110414
-0.0382986
-0.192504
-0.329997
-0.427787
-0.471928
-0.462587
-0.415259
-0.347695
-0.276164
-0.210983
-0.156754
-0.114335
-0.0826356
-0.059745
-0.0438486
-0.0331714
0.415862
0.414169
0.394538
0.350123
0.281936
0.194358
0.0910858
-0.0224398
-0.136148
-0.236107
-0.308969
-0.346444
-0.348613
-0.323322
-0.281299
-0.232778
-0.185282
-0.143166
-0.108227
-0.0806307
-0.0596666
-0.0443444
-0.0335283
0.347282
0.342917
0.322816
0.28358
0.226978
0.156595
0.0757075
-0.0109173
-0.095784
-0.169889
-0.225136
-0.256507
-0.263832
-0.251303
-0.225333
-0.192544
-0.158306
-0.126209
-0.0982061
-0.0750328
-0.0566611
-0.0426307
-0.0323474
0.284517
0.279075
0.260485
0.227227
0.181264
0.125587
0.0629459
-0.00284397
-0.066439
-0.121917
-0.164147
-0.18999
-0.199137
-0.1939
-0.178164
-0.15621
-0.1318
-0.107731
-0.0857824
-0.0668793
-0.051332
-0.0390585
-0.029782
0.22811
0.222629
0.206528
0.17934
0.14292
0.0996837
0.0518302
0.00225227
-0.0452966
-0.0868568
-0.119079
-0.139915
-0.149051
-0.147787
-0.138494
-0.123941
-0.106733
-0.0889666
-0.0721282
-0.0571269
-0.0444106
-0.0341039
-0.0261418
0.17771
0.172816
0.159635
0.138238
0.110243
0.0775114
0.0417109
0.0049584
-0.0301347
-0.0609039
-0.0851341
-0.101463
-0.109609
-0.110302
-0.104996
-0.0954792
-0.0835282
-0.0706714
-0.0580763
-0.0465366
-0.0365196
-0.0282451
-0.0217613
0.13251
0.128583
0.118446
0.102406
0.0818067
0.0580006
0.0321762
0.00582051
-0.0192923
-0.0413906
-0.0590169
-0.071265
-0.077901
-0.0793286
-0.0764296
-0.0703436
-0.0622567
-0.0532418
-0.0441678
-0.0356696
-0.0281623
-0.0218812
-0.0169268
0.091443
0.088695
0.0815794
0.0704734
0.0564147
0.0403112
0.0229399
0.00526942
-0.0115598
-0.0264193
-0.0383879
-0.0468859
-0.0517381
-0.0531581
-0.051662
-0.0479462
-0.042763
-0.0368197
-0.0307138
-0.0249034
-0.0197079
-0.015327
-0.0118734
0.0536058
0.0521289
0.0478744
0.0413103
0.0331468
0.023874
0.0139008
0.00376217
-0.00590195
-0.0144597
-0.0214006
-0.0263996
-0.0293475
-0.0303449
-0.02966
-0.0276667
-0.0247802
-0.0214019
-0.0178806
-0.0144927
-0.0114385
-0.00884847
-0.00680248
0.0170244
0.01669
0.0154431
0.0133566
0.0107121
0.00772368
0.00454212
0.00131709
-0.00175884
-0.00448489
-0.00669937
-0.0082981
-0.00924407
-0.0095656
-0.00934475
-0.0086992
-0.0077619
-0.00666278
-0.00551502
-0.00440815
-0.00340744
-0.00256251
-0.00190357
944.641
933.12
924.152
921.898
846.772
843.98
878.547
920.743
837.264
844.161
860.4
878.315
604.394
674.536
445.069
301.788
96.7557
98.4687
101.61
105.881
97.3083
99.8314
102.756
107.344
212.941
171.916
156.645
224.989
592.959
596.369
500.501
598.659
578.406
585.397
601.342
620.596
-0.249755
45.9098
94.7
36.9091
-0.467336
-0.408197
-0.385888
-0.338663
-0.417662
-0.428423
-0.398516
-0.371602
-0.310323
-0.439419
-0.412425
-0.376591
-0.492461
-0.444634
-0.424838
-0.401418
-0.492964
-0.461097
-0.431305
-0.402397
-0.487434
-0.455004
-0.424388
-0.395094
-0.47399
-0.440853
-0.409756
-0.380394
-0.451742
-0.418283
-0.387313
-0.358474
-0.419835
-0.387205
-0.3574
-0.330052
-0.378432
-0.348258
-0.320981
-0.296247
-0.328631
-0.302618
-0.279218
-0.25817
-0.272887
-0.252377
-0.233874
-0.217264
-0.215168
-0.200826
-0.187676
-0.175771
-0.160306
-0.151894
-0.14384
-0.136345
-0.112888
-0.109304
-0.105425
-0.101541
-0.0760353
-0.0756342
-0.0745983
-0.0732276
-0.0506469
-0.0517258
-0.0521565
-0.0521792
-0.0354882
-0.0367199
-0.0375147
-0.0380188
-0.0280753
-0.0286835
-0.0291498
-0.0295316
-0.0257107
-0.0253801
-0.0251899
-0.0251311
-0.0260209
-0.0247559
-0.0238459
-0.0232434
-0.0272238
-0.0252002
-0.0236655
-0.0225545
-0.0281453
-0.0256106
-0.0236268
-0.022125
-0.0281521
-0.0253659
-0.0231383
-0.0214044
-0.0270376
-0.0242361
-0.0219655
-0.0201691
-0.024869
-0.0222519
-0.0201151
-0.0184115
-0.0218665
-0.0195804
-0.0177095
-0.0162183
-0.0182677
-0.0164037
-0.0148837
-0.0136829
-0.0142792
-0.0128801
-0.0117542
-0.0108859
-0.0100714
-0.00914142
-0.00841936
-0.00789707
-0.00578105
-0.00529186
-0.00496888
-0.00480397
-0.00162503
-0.00157867
-0.00167079
-0.00188642
902.745
876.127
850.188
874.547
879.973
486.551
307.488
295.316
329.901
279.469
330.023
271.735
135.158
121.217
122.842
130.909
156.622
203.047
182.462
903.011
854.474
787.686
792.648
861.084
478.069
282.318
276.054
180.964
122.788
122.124
117.61
119.049
119.633
119.937
120.571
125.073
152.827
183.949
861.133
821.258
717.506
650.787
787.841
405.776
326.837
263.302
122.137
120.119
118.75
118.255
118.464
118.777
118.814
118.459
122.132
182.684
201.623
247.101
214.405
250.779
337.324
459.099
361.464
277.339
171.008
119.671
118.928
118.148
117.886
118.114
118.418
118.466
118.287
125.103
305.78
268.921
111.876
116.601
249.479
316.863
227.904
190.983
147.365
119.702
119.28
118.45
117.608
117.363
117.66
118.084
118.291
118.722
202.365
380.914
407.176
117.115
128.318
159.798
174.336
129.139
121.473
120.713
120.182
119.552
118.407
117.453
117.168
117.434
117.878
118.25
119.993
321.843
417.733
490.005
176.682
140.117
137.543
121.931
121.88
121.493
120.854
120.304
119.74
118.709
117.812
117.469
117.612
117.905
118.527
176.605
391.134
399.202
416.532
624.367
500.45
471.931
394.683
136.519
121.373
120.523
120.27
119.921
119.19
118.517
118.208
118.332
118.538
128.178
419.151
381.097
277.989
179.562
680.51
710.793
727.913
746.986
572.852
254.666
120.794
120.318
119.995
119.593
119.171
119.246
134.809
218.404
472.321
422.167
354.518
57.2827
26.9088
188.947
425.515
626.525
759.945
781.887
792.218
398.504
207.848
143.019
145.325
142.014
219.958
493.794
494.244
459.745
408.143
19.5999
9.68841
5.91134
-0.339669
-0.339908
0.238713
304.751
700.472
796.774
815.117
767.362
585.474
576.587
597.375
575.445
531.821
481.701
307.438
0.0496392
-1.62622
-1.43371
1.71215
-0.345659
-0.317868
-0.219435
-0.358353
0.14184
395.414
660.023
713.142
698.061
658.458
620.768
398.732
204.403
35.1086
-0.632979
-0.597658
-0.919961
-0.40351
0.366254
-0.327971
-0.30478
-0.261195
-0.220812
-0.0868717
-0.179264
0.044077
141.765
153.807
73.7273
0.448367
0.56286
0.343585
-0.17019
-0.429785
-0.437073
-0.459461
-0.169753
0.0531545
-0.33222
-0.287113
-0.25543
-0.207742
-0.15415
-0.134673
-0.080281
-0.134818
-0.115171
-0.138085
0.169531
0.307869
0.165924
0.0519435
0.334456
0.503191
0.23678
0.0706101
0.0583299
-0.349091
-0.299625
-0.249838
-0.203008
-0.15761
-0.124619
-0.0954932
-0.0788066
-0.0475372
0.0294618
0.161498
0.155963
0.103687
0.603913
0.607609
0.620523
0.677251
0.288985
0.085053
-0.349577
-0.292844
-0.241231
-0.195943
-0.153611
-0.11718
-0.0850399
-0.056605
-0.0236899
0.0244699
0.0616231
0.0533233
-0.033487
-0.0561967
0.451675
0.561403
-0.167738
-0.0932619
-0.0305646
-0.334751
-0.279144
-0.229832
-0.186108
-0.146634
-0.11163
-0.0796216
-0.0491091
-0.0176355
0.0131129
0.0241581
0.00102052
-0.0671641
-0.168428
-0.103153
-0.10708
-0.244816
-0.123629
-0.0340273
-0.313879
-0.260811
-0.214893
-0.174607
-0.138482
-0.105995
-0.0759059
-0.0475649
-0.0215178
-0.00300444
-0.00218165
-0.0261506
-0.0806232
-0.160025
-0.242604
-0.229332
-0.148147
0.00538928
-0.0667524
-0.288091
-0.239299
-0.197944
-0.16216
-0.130374
-0.101829
-0.0760178
-0.0525221
-0.0321633
-0.0206824
-0.0250882
-0.0483511
-0.0898981
-0.143681
-0.19773
-0.23829
-0.0870263
0.114994
-0.0658878
-0.258627
-0.215654
-0.179819
-0.149233
-0.122558
-0.0990278
-0.078314
-0.0600901
-0.045432
-0.0400272
-0.0482263
-0.0696649
-0.100607
-0.134844
-0.16529
-0.184056
-0.054158
0.169596
-0.0712703
-0.226292
-0.190278
-0.160664
-0.135712
-0.114456
-0.0963925
-0.0814927
-0.0694653
-0.0617258
-0.0645717
-0.0776074
-0.0969506
-0.116733
-0.133171
-0.14419
-0.143699
0.222056
0.224745
-0.0901069
-0.192106
-0.163654
-0.140467
-0.121249
-0.105413
-0.0929126
-0.0840185
-0.0782012
-0.0755613
-0.0930171
-0.117116
-0.133986
-0.140549
-0.138965
-0.13172
-0.11716
0.361305
0.0132153
-0.0878009
-0.157564
-0.136624
-0.119587
-0.105592
-0.0945951
-0.0869919
-0.0830867
-0.0763644
-0.090862
-0.126659
-0.161634
-0.174059
-0.167395
-0.148107
-0.12543
-0.0978287
0.405055
-0.0568735
-0.0748169
-0.124569
-0.110409
-0.0987065
-0.0890358
-0.0817123
-0.0774568
-0.0748698
-0.0724713
-0.100249
-0.154209
-0.18897
-0.198828
-0.183087
-0.151374
-0.114824
-0.0614611
0.0985398
-0.0328255
-0.0661226
-0.0950361
-0.0864225
-0.0789425
-0.0724681
-0.0674414
-0.0645439
-0.0601763
-0.0603751
-0.0968605
-0.145029
-0.180444
-0.190927
-0.173698
-0.134177
-0.0899765
-0.0536603
-0.0544073
-0.0397476
-0.0609903
-0.0704728
-0.0659444
-0.0615512
-0.0572979
-0.0535395
-0.0505831
-0.0440021
-0.0400763
-0.0731033
-0.105298
-0.134041
-0.144271
-0.129105
-0.0988366
-0.0492976
-0.00499229
-0.0203858
-0.0524793
-0.0593877
-0.0516395
-0.0497826
-0.0475185
-0.0448659
-0.0420044
-0.0389456
-0.0326655
-0.0219498
-0.0431481
-0.0614299
-0.0756101
-0.0783107
-0.0494834
-0.0344082
-0.0174557
-0.0089083
-0.0118099
-0.0571062
-0.0573757
-0.0384236
-0.0380526
-0.0371768
-0.0357634
-0.0338588
-0.0314535
-0.0279596
-0.020083
-0.0231238
-0.0316644
-0.0295653
-0.0486058
-0.0566527
-0.0684669
-0.0553978
-0.0261957
-0.0177308
-0.0557165
-0.0545223
-0.0299989
-0.0302214
-0.0301561
-0.0296868
-0.0287869
-0.0275117
-0.0262071
-0.0256802
-0.0152406
-0.0255062
-0.0429523
-0.0594682
-0.0788901
-0.0824576
-0.0697542
-0.0532827
-0.0546352
-0.0526472
-0.0503616
-0.0251514
-0.0253632
-0.0256566
-0.0258225
-0.0257839
-0.0256099
-0.0256619
-0.0268338
-0.0244326
-0.0257731
-0.0390848
-0.0613755
-0.0715051
-0.0731079
-0.0544235
-0.0275323
-0.034699
-0.0473731
-0.0454907
-0.0226005
-0.0224497
-0.0227723
-0.0232764
-0.0238343
-0.0244845
-0.025498
-0.0275068
-0.0314808
-0.0339108
-0.0376796
-0.041658
-0.0473581
-0.058657
-0.0559785
-0.0238401
-0.0307625
-0.0418083
-0.0409079
-0.0212377
-0.0205818
-0.0207348
-0.0213467
-0.0222395
-0.0233867
-0.0249076
-0.0271207
-0.0303774
-0.0350583
-0.0409757
-0.0403362
-0.0418907
-0.0490242
-0.0482909
-0.0435056
-0.0395819
-0.037614
-0.0372851
-0.0202578
-0.0191207
-0.0190376
-0.0196293
-0.0206722
-0.0220658
-0.0237961
-0.0259429
-0.0285495
-0.0319226
-0.0360941
-0.0404208
-0.044073
-0.0449687
-0.0423255
-0.0384914
-0.0359272
-0.0348218
-0.0347671
-0.0191901
-0.0177131
-0.0174405
-0.0179865
-0.0190902
-0.020585
-0.0223804
-0.0244145
-0.0265921
-0.0293047
-0.0325847
-0.0360235
-0.0395493
-0.0354505
-0.0294319
-0.0335348
-0.0338333
-0.033145
-0.0331176
-0.0178427
-0.0162289
-0.0158827
-0.0164245
-0.0175626
-0.0190865
-0.0208833
-0.0228081
-0.0247162
-0.0271198
-0.0298544
-0.0328869
-0.033062
-0.01982
-0.018251
-0.0313306
-0.0325717
-0.0320566
-0.0319858
-0.0161941
-0.0146516
-0.0143626
-0.0149605
-0.0161286
-0.0176444
-0.0194065
-0.021222
-0.0229635
-0.0251921
-0.027572
-0.0303693
-0.0155539
-0.0165072
-0.0225383
-0.0320436
-0.0315719
-0.0311932
-0.031109
-0.0142823
-0.0129848
-0.01286
-0.0135641
-0.0147696
-0.0162742
-0.0180056
-0.019757
-0.0214448
-0.0235917
-0.0256919
-0.0277693
-0.012459
-0.01504
-0.0315797
-0.0310061
-0.0306125
-0.0304076
-0.0303452
-0.0121447
-0.0112214
-0.0113381
-0.012186
-0.0134573
-0.0149914
-0.0167432
-0.018516
-0.0202668
-0.0223406
-0.0242801
-0.0256938
-0.00972464
-0.029249
-0.0298651
-0.0297902
-0.0296606
-0.0296267
-0.0295984
-0.00981661
-0.0093568
-0.00977696
-0.0108113
-0.0122053
-0.0138433
-0.0156783
-0.0175337
-0.019392
-0.0213988
-0.0232428
-0.0246612
-0.0180649
-0.0279275
-0.028372
-0.0286307
-0.0287137
-0.0288132
-0.0288148
-0.00732933
-0.00739767
-0.0081905
-0.00948559
-0.0110875
-0.012903
-0.0148594
-0.0168132
-0.0187558
-0.0207004
-0.0224664
-0.0241764
-0.0256404
-0.0265593
-0.0271894
-0.0276233
-0.0278661
-0.0280591
-0.0280812
-0.00477577
-0.00544464
-0.00669355
-0.00833495
-0.0102114
-0.0122294
-0.0143116
-0.0163604
-0.0183613
-0.020259
-0.0219498
-0.0235048
-0.024674
-0.0255642
-0.0262712
-0.0268128
-0.0271878
-0.0274576
-0.0274779
-0.0024397
-0.00376016
-0.00552954
-0.0075455
-0.00969897
-0.0119007
-0.0141009
-0.0162245
-0.0182906
-0.0201578
-0.0217492
-0.0231289
-0.0238892
-0.0247424
-0.0254322
-0.0261065
-0.0266428
-0.027027
-0.0269315
)
;

boundaryField
{
    leftWall
    {
        type            fixedFluxPressure;
        gradient        uniform 0;
        value           nonuniform List<scalar> 
50
(
994.548
995.424
997.398
1000.4
1004.2
1008.86
1014.38
1020.42
991.929
911.337
877.141
872.659
781.085
787.186
786.513
899.233
977.86
1053.13
1016.46
916.023
1062.84
1188.46
1269.56
666.429
15.8889
3.50396
24.6175
577.172
900.869
956.44
1000.84
1041.5
638.413
39.2974
5.35188
1.64853
0.894466
0.713205
0.634644
0.563912
0.489034
0.415862
0.347282
0.284517
0.22811
0.17771
0.13251
0.091443
0.0536058
0.0170244
)
;
    }
    rightWall
    {
        type            fixedFluxPressure;
        gradient        uniform 0;
        value           nonuniform List<scalar> 
50
(
404.83
407.724
372.704
381.855
448.767
463.937
410.532
193.138
182.462
183.949
201.623
268.921
407.176
490.005
416.532
179.562
26.9088
5.91134
1.71215
0.366254
0.0531545
0.0583299
0.085053
-0.0305646
-0.0340273
-0.0667524
-0.0658878
-0.0712703
-0.0901069
-0.0878009
-0.0748169
-0.0661226
-0.0609903
-0.0593877
-0.0573757
-0.0545223
-0.0503616
-0.0454907
-0.0409079
-0.0372851
-0.0347671
-0.0331176
-0.0319858
-0.031109
-0.0303452
-0.0295984
-0.0288148
-0.0280812
-0.0274779
-0.0269315
)
;
    }
    lowerWall
    {
        type            fixedFluxPressure;
        gradient        uniform 0;
        value           nonuniform List<scalar> 
62
(
994.548
987.268
979.864
972.746
966.358
961.549
956.182
949.523
942.77
935.939
930.817
929.7
933.886
942.936
959.042
981.169
1005.38
1030.15
1049.1
1057.18
1058.4
1055.96
1052.56
1052.56
1050.73
1047.58
1043.38
1037.87
1030.24
1020.88
1010.05
944.641
933.12
924.152
921.898
804.755
808.213
813.948
820.062
826.102
838.759
859.824
875.717
804.755
778.122
757.088
785.01
741.784
640.506
612.131
611.185
549.886
465.323
448.855
494.034
481.261
423.97
374.948
357.879
365.705
380.042
404.83
)
;
    }
    atmosphere
    {
        type            totalPressure;
        rho             rho;
        psi             none;
        gamma           1;
        p0              uniform 0;
        value           nonuniform List<scalar> 
46
(
0
0
0
0
0
0
0
0
0
0
0
0
0
0
0
0
0
0
0
0
0
0
0
-7.76753e-06
-0.000107475
-0.000329456
-0.000678744
-0.00152379
-0.0031702
-0.00521535
-0.00737596
-0.00964245
-0.0119149
-0.0141689
-0.0163015
-0.0184305
-0.020277
-0.0217894
-0.0231505
-0.023393
-0.0242317
-0.0249257
-0.0257199
-0.0263804
-0.0268942
-0.0265841
)
;
    }
    defaultFaces
    {
        type            empty;
    }
}


// ************************************************************************* //
