/*--------------------------------*- C++ -*----------------------------------*\
| =========                 |                                                 |
| \\      /  F ield         | OpenFOAM: The Open Source CFD Toolbox           |
|  \\    /   O peration     | Version:  2206                                  |
|   \\  /    A nd           | Website:  www.openfoam.com                      |
|    \\/     M anipulation  |                                                 |
\*---------------------------------------------------------------------------*/
FoamFile
{
    version     2.0;
    format      ascii;
    arch        "LSB;label=32;scalar=64";
    class       surfaceScalarField;
    location    "1";
    object      phi;
}
// * * * * * * * * * * * * * * * * * * * * * * * * * * * * * * * * * * * * * //

dimensions      [0 3 -1 0 0 0 0];

oriented        oriented;

internalField   nonuniform List<scalar> 
4432
(
4.98552e-06
-4.98552e-06
6.27168e-06
-1.28615e-06
3.14257e-06
3.12911e-06
-1.18339e-06
4.32595e-06
-2.35965e-06
1.17626e-06
-5.11394e-07
-1.84825e-06
7.30216e-07
-1.24161e-06
1.01264e-07
6.28956e-07
-1.65745e-06
1.75872e-06
-4.23568e-06
2.57822e-06
-7.24585e-06
3.01018e-06
-9.64215e-06
2.3963e-06
-1.05181e-05
8.75925e-07
-1.20622e-05
1.54413e-06
-1.74556e-05
5.39335e-06
-2.53369e-05
7.88137e-06
-2.94258e-05
4.08887e-06
-2.64322e-05
-2.99361e-06
-2.04206e-05
-6.01165e-06
-1.51133e-05
-5.30728e-06
-1.00796e-05
-5.03368e-06
-4.5011e-06
-5.57855e-06
-4.5011e-06
-4.4807e-08
-4.94071e-06
-1.26071e-06
-7.02502e-08
-3.57904e-06
5.44743e-06
-5.05545e-06
5.80236e-06
-3.9398e-06
6.05989e-08
-1.31625e-06
-4.47178e-06
2.59299e-07
-2.81716e-06
-2.49354e-07
1.1376e-06
-2.2805e-06
3.78989e-06
-5.16062e-06
5.45833e-06
-8.47338e-06
6.32295e-06
-1.21263e-05
6.04918e-06
-1.6603e-05
5.35267e-06
-2.20559e-05
6.99697e-06
-2.68785e-05
1.0216e-05
-2.7771e-05
8.77384e-06
-2.33459e-05
-3.36265e-07
-1.72431e-05
-9.09643e-06
-1.25231e-05
-1.07317e-05
-8.94608e-06
-8.88425e-06
-5.96403e-06
-8.0157e-06
-2.74034e-06
-8.80225e-06
-7.24144e-06
-2.05199e-06
-2.88871e-06
-4.33707e-06
2.21483e-06
-5.96103e-06
7.07138e-06
-6.29151e-06
6.13286e-06
-4.96583e-06
-1.26509e-06
-2.21177e-06
-7.22582e-06
-2.5638e-07
-4.77255e-06
-4.87827e-07
1.36903e-06
-2.0425e-06
5.34459e-06
-4.22023e-06
7.63605e-06
-6.75369e-06
8.85641e-06
-1.00299e-05
9.32544e-06
-1.45956e-05
9.91834e-06
-1.91836e-05
1.15849e-05
-2.0904e-05
1.19364e-05
-1.80898e-05
5.9597e-06
-1.3582e-05
-4.84406e-06
-1.03626e-05
-1.23158e-05
-7.8654e-06
-1.32289e-05
-5.24782e-06
-1.15019e-05
-3.39819e-06
-9.86533e-06
-1.67118e-06
-1.05293e-05
-8.91261e-06
-1.51279e-06
-1.37591e-06
-3.31073e-06
4.01278e-06
-4.72282e-06
8.48348e-06
-5.51594e-06
6.92599e-06
-4.67078e-06
-2.11026e-06
-2.22576e-06
-9.67083e-06
-6.14601e-07
-6.3837e-06
-9.66944e-07
1.72136e-06
-2.38399e-06
6.76165e-06
-4.28507e-06
9.53712e-06
-6.34872e-06
1.09201e-05
-8.70662e-06
1.16833e-05
-1.13751e-05
1.25868e-05
-1.31313e-05
1.33412e-05
-1.24007e-05
1.12058e-05
-1.0147e-05
3.70606e-06
-8.82378e-06
-6.16735e-06
-8.32749e-06
-1.28121e-05
-7.05351e-06
-1.45029e-05
-5.04372e-06
-1.35116e-05
-3.36903e-06
-1.154e-05
-1.77801e-06
-1.21203e-05
-1.06906e-05
4.25174e-07
-1.80108e-06
-1.8308e-07
4.62105e-06
-1.52458e-06
9.82497e-06
-2.77824e-06
8.17966e-06
-2.37664e-06
-2.51187e-06
-9.5293e-07
-1.10945e-05
-4.38303e-07
-6.89831e-06
-1.4115e-06
2.69455e-06
-3.08481e-06
8.43496e-06
-5.10072e-06
1.1553e-05
-7.12714e-06
1.29465e-05
-9.03557e-06
1.35918e-05
-1.05523e-05
1.41035e-05
-1.09091e-05
1.36979e-05
-9.98261e-06
1.02793e-05
-9.16883e-06
2.89229e-06
-9.03478e-06
-6.3014e-06
-8.07073e-06
-1.37762e-05
-6.11755e-06
-1.64561e-05
-4.25387e-06
-1.53753e-05
-2.71496e-06
-1.30789e-05
-1.6325e-06
-1.32028e-05
-1.23231e-05
3.32593e-06
-5.127e-06
4.62181e-06
3.32518e-06
3.29815e-06
1.11486e-05
1.71083e-06
9.76697e-06
1.75719e-06
-2.55822e-06
1.74035e-06
-1.10777e-05
4.48436e-07
-5.6064e-06
-1.51407e-06
4.65704e-06
-3.63194e-06
1.05528e-05
-5.78699e-06
1.37081e-05
-7.84456e-06
1.50041e-05
-9.7339e-06
1.54811e-05
-1.12848e-05
1.56544e-05
-1.19302e-05
1.43433e-05
-1.14753e-05
9.82442e-06
-1.05397e-05
1.95675e-06
-9.29892e-06
-7.54224e-06
-6.90756e-06
-1.61675e-05
-4.03355e-06
-1.93301e-05
-1.90525e-06
-1.75036e-05
-4.42408e-07
-1.45418e-05
-4.27591e-07
-1.32176e-05
-1.27507e-05
6.84007e-06
-1.19671e-05
1.01487e-05
1.65268e-08
9.12273e-06
1.21746e-05
7.24661e-06
1.16431e-05
6.77687e-06
-2.08849e-06
5.52202e-06
-9.82287e-06
2.88845e-06
-2.97283e-06
-2.22688e-07
7.76817e-06
-2.73422e-06
1.30644e-05
-4.92113e-06
1.5895e-05
-6.91052e-06
1.69935e-05
-8.8749e-06
1.74455e-05
-1.08079e-05
1.75875e-05
-1.18736e-05
1.54089e-05
-1.16098e-05
9.56062e-06
-1.06174e-05
9.64347e-07
-1.01167e-05
-8.04301e-06
-8.72234e-06
-1.75618e-05
-5.40187e-06
-2.26506e-05
-1.36587e-06
-2.15396e-05
1.79738e-06
-1.7705e-05
1.73887e-06
-1.31591e-05
-1.10119e-05
1.11974e-05
-2.31645e-05
1.59769e-05
-4.76291e-06
1.50395e-05
1.3112e-05
1.30724e-05
1.36101e-05
1.12978e-05
-3.1381e-07
8.83602e-06
-7.36115e-06
6.41263e-06
-5.4944e-07
3.19261e-06
1.09882e-05
7.65993e-07
1.5491e-05
-1.60973e-06
1.82707e-05
-3.68768e-06
1.90714e-05
-5.8824e-06
1.96402e-05
-8.59691e-06
2.0302e-05
-1.0822e-05
1.76341e-05
-1.22212e-05
1.09598e-05
-1.4816e-05
3.55913e-06
-2.22909e-05
-5.68084e-07
-2.55661e-05
-1.42866e-05
-1.93865e-05
-2.88302e-05
-8.8746e-06
-3.20516e-05
3.82247e-07
-2.69619e-05
4.15262e-06
-1.69295e-05
-6.85924e-06
-1.28354e-06
1.28354e-06
-1.40415e-05
1.2758e-05
-1.22917e-05
-1.74984e-06
1.08213e-05
-2.3113e-05
3.33924e-05
-2.25711e-05
3.44109e-05
-1.0185e-06
2.65297e-05
7.88126e-06
2.5978e-05
5.51602e-07
3.36231e-05
-7.64509e-06
3.20544e-05
1.56874e-06
1.10733e-05
2.09811e-05
-7.02188e-06
1.80951e-05
-1.94276e-05
1.24057e-05
-2.73675e-05
7.93996e-06
-2.62725e-05
-1.095e-06
-1.8849e-05
-7.42356e-06
-8.72128e-06
-1.01277e-05
-1.49341e-06
-7.22786e-06
-1.49339e-06
-7.53662e-06
8.82018e-06
-1.35932e-05
1.88146e-05
-7.71792e-06
-7.62512e-06
1.28935e-05
-4.37244e-05
2.90363e-05
-3.87139e-05
3.03981e-05
-2.38032e-06
2.38062e-05
1.44731e-05
1.49746e-05
9.38321e-06
1.44651e-05
-7.1356e-06
1.80835e-05
-2.0497e-06
6.34899e-06
3.27157e-05
-1.89013e-05
4.33454e-05
-3.03469e-05
2.38513e-05
-2.68788e-05
4.47183e-06
-2.425e-05
-3.7238e-06
-2.23967e-05
-9.27679e-06
-1.38405e-05
-1.86839e-05
-8.95394e-07
-2.01729e-05
-2.38878e-06
-7.78923e-06
1.66094e-05
-1.16088e-05
2.26342e-05
-4.54262e-06
-1.46913e-05
1.20871e-05
-6.0354e-05
2.08258e-05
-4.74526e-05
1.34297e-05
5.0158e-06
-6.42794e-06
3.43307e-05
-2.01606e-05
2.31159e-05
-1.15018e-05
-1.57944e-05
-2.34656e-06
-1.12049e-05
-9.16919e-06
3.95384e-05
-2.49147e-05
5.9091e-05
-2.7487e-05
2.64236e-05
-2.44611e-05
1.44589e-06
-3.16914e-05
3.50659e-06
-3.60449e-05
-4.92333e-06
-2.52779e-05
-2.94509e-05
-8.9665e-06
-3.64843e-05
-1.13553e-05
-5.17105e-06
2.17805e-05
-7.70522e-06
2.51684e-05
-2.62361e-06
-1.9773e-05
5.60506e-06
-6.85827e-05
1.02411e-06
-4.28716e-05
-1.58947e-05
2.19346e-05
-3.46731e-05
5.31091e-05
-3.62987e-05
2.47415e-05
-2.52644e-05
-2.68287e-05
-2.10029e-05
-1.54664e-05
-2.30882e-05
4.16237e-05
-2.58489e-05
6.18516e-05
-2.31636e-05
2.37383e-05
-2.89185e-05
7.20079e-06
-4.66e-05
2.11882e-05
-5.34902e-05
1.96681e-06
-3.24891e-05
-5.04519e-05
-1.60231e-05
-5.29503e-05
-2.73784e-05
-1.32609e-06
2.31066e-05
-1.9076e-06
2.57499e-05
7.72756e-07
-2.24533e-05
-2.64951e-06
-6.51605e-05
-1.7314e-05
-2.82072e-05
-3.7983e-05
4.26037e-05
-4.58081e-05
6.09342e-05
-4.00539e-05
1.89873e-05
-3.3554e-05
-3.33286e-05
-3.31723e-05
-1.58482e-05
-3.01699e-05
3.86213e-05
-2.63669e-05
5.80487e-05
-2.95106e-05
2.6882e-05
-4.70281e-05
2.47183e-05
-7.29494e-05
4.71096e-05
-6.59797e-05
-5.00294e-06
-2.73786e-05
-8.90529e-05
-5.69849e-06
-7.46304e-05
-3.30769e-05
4.03831e-06
1.90682e-05
6.12911e-06
2.36591e-05
4.88863e-06
-2.12128e-05
-8.51338e-06
-5.17585e-05
-2.87436e-05
-7.97702e-06
-4.47239e-05
5.8584e-05
-4.51408e-05
6.13512e-05
-3.85553e-05
1.24017e-05
-3.85662e-05
-3.33177e-05
-4.00344e-05
-1.43799e-05
-3.37439e-05
3.23308e-05
-2.77063e-05
5.2011e-05
-4.01367e-05
3.93125e-05
-7.31334e-05
5.7715e-05
-9.43761e-05
6.83523e-05
-6.48967e-05
-3.44824e-05
-2.89122e-05
-0.000125037
8.18193e-07
-0.000104361
-3.22587e-05
9.49551e-06
9.57272e-06
1.53507e-05
1.78039e-05
1.16298e-05
-1.7492e-05
-6.41552e-06
-3.37131e-05
-2.74606e-05
1.3068e-05
-3.78914e-05
6.90148e-05
-3.98455e-05
6.33053e-05
-3.95458e-05
1.21021e-05
-4.50574e-05
-2.78062e-05
-4.44666e-05
-1.49707e-05
-3.66761e-05
2.45403e-05
-3.64164e-05
5.17513e-05
-6.20079e-05
6.4904e-05
-9.2028e-05
8.77351e-05
-8.80877e-05
6.44121e-05
-5.77359e-05
-6.48342e-05
-2.76422e-05
-0.000155131
4.20094e-06
-0.000136204
-2.80578e-05
1.3435e-05
-3.86224e-06
2.31152e-05
8.12365e-06
1.99347e-05
-1.43115e-05
4.27597e-06
-1.80544e-05
-1.52628e-05
3.26068e-05
-2.47432e-05
7.84951e-05
-2.85019e-05
6.7064e-05
-4.0021e-05
2.36212e-05
-5.45294e-05
-1.32977e-05
-5.47376e-05
-1.47626e-05
-5.12678e-05
2.10705e-05
-5.85179e-05
5.90013e-05
-8.15622e-05
8.79483e-05
-0.000100719
0.000106892
-8.62281e-05
4.99216e-05
-5.85062e-05
-9.25561e-05
-2.72601e-05
-0.000186377
1.17806e-05
-0.000175245
-1.62772e-05
3.37827e-05
-5.69472e-05
5.43568e-05
-2.5337e-05
5.40858e-05
1.3383e-05
4.48609e-05
2.28351e-05
3.25535e-05
1.19936e-05
2.26438e-05
2.54847e-06
1.75898e-05
4.50461e-06
7.5964e-06
2.09815e-05
-3.46957e-06
2.6557e-05
-1.12386e-05
2.60398e-05
-1.43947e-05
2.22275e-05
-1.8586e-05
2.38316e-05
-3.0101e-05
3.18169e-05
-4.97422e-05
3.72753e-05
-8.93401e-05
5.05577e-05
-0.000146328
6.05472e-05
-0.000172027
2.51307e-05
-0.000143849
-4.24644e-05
-9.53578e-05
-7.73215e-05
-5.17553e-05
-7.56541e-05
-1.84013e-05
-6.03158e-05
4.70784e-06
-4.00386e-05
-2.09323e-05
1.87808e-05
3.04261e-05
-8.73734e-05
5.04046e-05
-4.53155e-05
6.28613e-05
9.26217e-07
5.97385e-05
2.59578e-05
4.57686e-05
2.59635e-05
3.05486e-05
1.77685e-05
4.26614e-06
3.07871e-05
-2.73017e-05
5.25494e-05
-5.73446e-05
5.65998e-05
-7.9071e-05
4.77662e-05
-9.19397e-05
3.50962e-05
-0.000109372
4.12635e-05
-0.00015083
7.32757e-05
-0.000209887
9.6332e-05
-0.000258679
9.93493e-05
-0.000260004
6.18723e-05
-0.000208522
-2.63513e-05
-0.000154041
-9.69456e-05
-0.000112634
-0.000118728
-8.14483e-05
-0.00010684
-5.76566e-05
-8.41074e-05
-3.45024e-05
-6.31929e-05
-4.51609e-05
-1.02738e-05
8.36105e-06
-9.57344e-05
2.01506e-05
-5.7105e-05
3.22236e-05
-1.11468e-05
3.93766e-05
1.88048e-05
2.51505e-05
4.01896e-05
-2.21746e-05
6.50935e-05
-9.84569e-05
0.000107069
-0.000149623
0.000103715
-0.000163653
7.06301e-05
-0.00016982
5.39333e-05
-0.000193072
5.83484e-05
-0.000232782
8.09734e-05
-0.000266322
0.000106815
-0.000278359
0.000108369
-0.000260209
8.11988e-05
-0.000225154
2.68177e-05
-0.000200437
-5.10685e-05
-0.000176212
-0.00012117
-0.000152335
-0.000142605
-0.000135894
-0.000123281
-0.000123608
-9.63936e-05
-0.000108233
-7.85683e-05
-6.88743e-05
-8.45191e-05
-3.15539e-05
-6.41805e-05
-4.48907e-05
-4.37682e-05
-3.28656e-05
-2.31719e-05
-3.5513e-05
2.14522e-05
-6.96612e-05
7.43378e-05
-0.000148321
0.000143754
-0.000221354
0.000180102
-0.000259371
0.000141732
-0.000268798
8.00569e-05
-0.000257929
4.30644e-05
-0.000247641
4.80607e-05
-0.000245236
7.85689e-05
-0.000241481
0.00010306
-0.000228571
9.54587e-05
-0.000211966
6.45938e-05
-0.000211836
2.66875e-05
-0.000223879
-3.90249e-05
-0.000209817
-0.000135232
-0.000197507
-0.000154916
-0.000193455
-0.000127332
-0.000198769
-9.10804e-05
-0.000202571
-7.47662e-05
-8.38994e-05
-0.000187546
-5.59907e-05
-8.1898e-06
-0.000123146
2.33868e-05
-0.000143688
-2.62978e-06
-0.000164823
4.2587e-05
-0.000206134
0.000115649
-0.000245095
0.000182714
-0.000262557
0.000197564
-0.000267228
0.000146403
-0.000271744
8.45721e-05
-0.000264499
3.58197e-05
-0.000249864
3.3426e-05
-0.000229892
5.85966e-05
-0.000208259
8.14277e-05
-0.000198274
8.54731e-05
-0.000204165
7.0485e-05
-0.000220933
4.34554e-05
-0.000220102
-3.98552e-05
-0.000214777
-0.000140558
-0.000216403
-0.00015329
-0.000223758
-0.000119977
-0.000241631
-7.3208e-05
-0.000285755
-3.0642e-05
-7.03295e-05
-0.000299325
-4.24003e-05
3.42105e-05
-0.000144563
0.00012555
-0.000200452
5.32595e-05
-0.00021161
5.37441e-05
-0.000197685
0.000101725
-0.00017959
0.000164619
-0.000172242
0.000190217
-0.000206024
0.000180185
-0.00025655
0.000135099
-0.000280161
5.94299e-05
-0.000277608
3.0873e-05
-0.000251359
3.23477e-05
-0.000206512
3.65807e-05
-0.000170936
4.98977e-05
-0.000170855
7.04034e-05
-0.000191775
6.43763e-05
-0.000197997
-3.36332e-05
-0.000212184
-0.000126371
-0.000220451
-0.000145023
-0.000222348
-0.000118081
-0.000216492
-7.90641e-05
-0.000196451
-5.06825e-05
-6.23736e-05
-0.000204407
-3.41481e-05
6.83586e-05
-0.000156623
0.000248025
-0.000222817
0.000119453
-0.000215492
4.64198e-05
-0.000184086
7.03185e-05
-0.000143918
0.000124451
-0.000117327
0.000163625
-0.000147189
0.000210047
-0.000222368
0.000210278
-0.000276572
0.000113633
-0.000290509
4.48104e-05
-0.000272656
1.44952e-05
-0.000239686
3.61079e-06
-0.000200671
1.08822e-05
-0.000172593
4.2325e-05
-0.000166742
5.85259e-05
-0.000184426
-1.59498e-05
-0.000202455
-0.000108342
-0.00021645
-0.000131028
-0.000210322
-0.000124209
-0.000181672
-0.000107715
-0.000144627
-8.77275e-05
-8.94058e-05
-0.000117594
-1.24132e-05
8.07719e-05
-9.87727e-05
0.000334384
-0.000168672
0.000189352
-0.000187881
6.56282e-05
-0.000186978
6.94162e-05
-0.000164188
0.000101661
-0.000148131
0.000147568
-0.000162988
0.000224904
-0.000201438
0.000248728
-0.000237431
0.000149627
-0.00025158
5.89596e-05
-0.000253991
1.69057e-05
-0.000254253
3.87328e-06
-0.000247231
3.86016e-06
-0.00022216
1.72533e-05
-0.000185132
2.1498e-05
-0.000168489
-3.25927e-05
-0.000177685
-9.91466e-05
-0.000191517
-0.000117196
-0.000199151
-0.000116575
-0.000178655
-0.00012821
-0.000150977
-0.000115406
-0.000117751
-0.000122632
-6.90315e-06
8.7675e-05
-5.14539e-05
0.000378935
-9.31143e-05
0.000231013
-0.000129138
0.000101652
-0.000152392
9.26705e-05
-0.000164948
0.000114217
-0.000180705
0.000163325
-0.000193442
0.000237642
-0.00020073
0.000256016
-0.000211997
0.000160894
-0.000221899
6.88619e-05
-0.000231282
2.62882e-05
-0.000232934
5.52451e-06
-0.000225149
-3.92445e-06
-0.000201746
-6.14956e-06
-0.000162628
-1.76208e-05
-0.000137424
-5.77959e-05
-0.000135382
-0.000101189
-0.000137889
-0.000114689
-0.00014161
-0.000112853
-0.000164685
-0.000105135
-0.000164354
-0.000115737
-0.00013926
-0.000142845
-5.8247e-06
9.34997e-05
-4.62056e-05
0.000419316
-9.31322e-05
0.00027794
-0.000144646
0.000153165
-0.000180928
0.000128952
-0.000201484
0.000134774
-0.000216924
0.000178763
-0.000214088
0.000234806
-0.000193027
0.000234955
-0.000181903
0.00014977
-0.000181913
6.88712e-05
-0.000181422
2.57975e-05
-0.000174282
-1.61528e-06
-0.000160333
-1.7873e-05
-0.000139982
-2.65006e-05
-0.000116782
-4.08211e-05
-0.000105045
-6.95331e-05
-0.000105757
-0.000100478
-0.000103021
-0.000117426
-9.25187e-05
-0.000123356
-7.56627e-05
-0.000121991
-6.89198e-05
-0.00012248
-0.000117132
-9.10475e-05
-5.22113e-06
9.87208e-05
-4.55289e-05
0.000459624
-9.19902e-05
0.000324401
-0.000152332
0.000213507
-0.000197562
0.000174183
-0.000223683
0.000160895
-0.000226997
0.000182077
-0.00020352
0.000211329
-0.000164619
0.000196054
-0.00014001
0.000125161
-0.000128816
5.76781e-05
-0.000119226
1.62068e-05
-0.000111271
-9.571e-06
-0.000102031
-2.71128e-05
-8.88653e-05
-3.9666e-05
-7.47706e-05
-5.49161e-05
-6.84597e-05
-7.58441e-05
-7.15599e-05
-9.73775e-05
-7.69195e-05
-0.000112066
-7.90398e-05
-0.000121236
-7.35861e-05
-0.000127445
-6.34529e-05
-0.000132613
-0.00012534
-5.52448e-05
-7.96385e-06
0.000106685
-3.98881e-05
0.000491548
-8.22375e-05
0.00036675
-0.000131844
0.000263113
-0.000170005
0.000212344
-0.000191719
0.000182609
-0.000189621
0.000179979
-0.000161578
0.000183286
-0.000122982
0.000157458
-9.82055e-05
0.000100384
-8.80899e-05
4.75626e-05
-8.50588e-05
1.31759e-05
-8.40308e-05
-1.05992e-05
-8.11251e-05
-3.00186e-05
-7.32582e-05
-4.75332e-05
-6.31207e-05
-6.50534e-05
-5.57422e-05
-8.32228e-05
-5.34663e-05
-9.96535e-05
-5.43026e-05
-0.00011123
-5.65795e-05
-0.000118959
-5.97763e-05
-0.000124248
-6.36874e-05
-0.000128702
-0.000129175
-5.98527e-05
-7.60448e-06
0.000114289
-3.0377e-06
0.000486981
-6.09511e-05
0.000424664
-9.50386e-05
0.0002972
-0.000119689
0.000236994
-0.000132478
0.000195399
-0.000130624
0.000178125
-0.000113605
0.000166266
-9.26498e-05
0.000136504
-8.49517e-05
9.2686e-05
-9.05461e-05
5.31565e-05
-9.89101e-05
2.15403e-05
-0.000102321
-7.18808e-06
-9.84966e-05
-3.38433e-05
-8.90357e-05
-5.69944e-05
-7.69895e-05
-7.71001e-05
-6.58366e-05
-9.43762e-05
-5.74069e-05
-0.000108083
-5.11439e-05
-0.000117493
-4.68288e-05
-0.000123274
-4.46801e-05
-0.000126397
-4.55593e-05
-0.000127823
-0.000129159
-4.55755e-05
-4.11856e-07
0.000114701
6.99763e-05
0.000416593
-3.48398e-06
0.000498124
-4.84747e-05
0.000342191
-7.21178e-05
0.000260638
-8.31113e-05
0.000206393
-8.90704e-05
0.000184084
-9.09884e-05
0.000168184
-9.49847e-05
0.0001405
-0.000107838
0.000105539
-0.000123595
6.89132e-05
-0.000132833
3.07787e-05
-0.000132524
-7.49726e-06
-0.000124124
-4.22434e-05
-0.00011058
-7.05381e-05
-9.50268e-05
-9.26535e-05
-8.00774e-05
-0.000109325
-6.70995e-05
-0.000121061
-5.63071e-05
-0.000128286
-4.77381e-05
-0.000131843
-4.13862e-05
-0.000132749
-3.69856e-05
-0.000132224
-0.000131194
-3.49506e-05
3.36792e-06
0.000111333
7.06412e-05
0.00034932
3.22644e-05
0.000536501
-1.57288e-05
0.000390184
-4.13757e-05
0.000286285
-5.89328e-05
0.00022395
-7.90907e-05
0.000204241
-0.000100957
0.000190051
-0.000125809
0.000165352
-0.000151687
0.000131417
-0.000170706
8.79319e-05
-0.000177532
3.76038e-05
-0.000171853
-1.31761e-05
-0.000156321
-5.77747e-05
-0.000135059
-9.18003e-05
-0.000112738
-0.000114974
-9.23682e-05
-0.000129695
-7.5138e-05
-0.000138291
-6.1102e-05
-0.000142322
-4.99075e-05
-0.000143038
-4.11834e-05
-0.000141472
-3.47379e-05
-0.000138669
-0.000135153
-3.0779e-05
8.6545e-06
0.000102678
3.49487e-05
0.000323025
2.37727e-05
0.000547677
-1.17949e-05
0.000425752
-3.19711e-05
0.000306461
-5.88889e-05
0.000250868
-9.42194e-05
0.000239571
-0.000133425
0.000229257
-0.000173094
0.000205021
-0.000206906
0.000165229
-0.000228361
0.000109387
-0.000233574
4.2816e-05
-0.000222077
-2.46726e-05
-0.000196841
-8.30109e-05
-0.000164084
-0.000124557
-0.000131159
-0.000147899
-0.000102652
-0.000158201
-7.99522e-05
-0.00016099
-6.26184e-05
-0.000159655
-4.96835e-05
-0.000155973
-4.0133e-05
-0.000151023
-3.31711e-05
-0.000145631
-0.000140062
-2.82626e-05
2.26214e-06
0.000100416
-7.708e-06
0.000332995
-1.87769e-05
0.000558746
-2.78342e-05
0.000434808
-3.99304e-05
0.000318558
-7.52347e-05
0.000286172
-0.000122272
0.000286609
-0.000172887
0.000279872
-0.000219849
0.000251983
-0.000257411
0.000202792
-0.000281591
0.000133567
-0.000286198
4.74235e-05
-0.0002701
-4.07711e-05
-0.000236856
-0.000116254
-0.000192878
-0.000168534
-0.00014791
-0.000192868
-0.00010953
-0.000196581
-8.04309e-05
-0.000190089
-5.95286e-05
-0.000180557
-4.49553e-05
-0.000170546
-3.5103e-05
-0.000160875
-2.87708e-05
-0.000151963
-0.000143973
-2.48597e-05
-7.04317e-06
0.00010746
-4.63359e-05
0.000372288
-4.96034e-05
0.000562013
-4.34537e-05
0.000428659
-5.48874e-05
0.000329992
-9.55148e-05
0.000326799
-0.000147392
0.000338487
-0.000199556
0.000332036
-0.000243596
0.000296022
-0.000277115
0.000236311
-0.000299231
0.000155683
-0.000303612
5.18046e-05
-0.000289566
-5.48174e-05
-0.000255594
-0.000150225
-0.000207311
-0.000216818
-0.000154684
-0.000245494
-0.000108349
-0.000242916
-7.39499e-05
-0.000224488
-5.06635e-05
-0.000203843
-3.54706e-05
-0.000185738
-2.59061e-05
-0.00017044
-2.04125e-05
-0.000157457
-0.000146518
-1.78666e-05
-6.08149e-05
0.000168274
-9.25209e-05
0.000403994
-6.69686e-05
0.000536461
-5.20952e-05
0.000413786
-6.40651e-05
0.000341961
-0.000102445
0.000365179
-0.000147729
0.00038377
-0.000188891
0.000373198
-0.000220615
0.000327745
-0.000243821
0.000259518
-0.000260938
0.0001728
-0.00026722
5.80866e-05
-0.000257344
-6.46939e-05
-0.000228779
-0.00017879
-0.000186682
-0.000258915
-0.000137557
-0.000294619
-9.13188e-05
-0.000289154
-5.615e-05
-0.000259656
-3.35835e-05
-0.000226409
-2.02891e-05
-0.000199032
-1.27128e-05
-0.000178016
-8.97156e-06
-0.000161198
-0.000147602
-7.88783e-06
-4.49877e-05
0.000213262
-8.52178e-05
0.000444224
-6.16181e-05
0.000512861
-4.76111e-05
0.000399779
-5.6647e-05
0.000350996
-8.34108e-05
0.000391943
-0.000110788
0.000411147
-0.000132275
0.000394685
-0.000147403
0.000342873
-0.000157212
0.000269327
-0.00016555
0.000181137
-0.000171755
6.42916e-05
-0.000165134
-7.13145e-05
-0.000146292
-0.000197631
-0.000117913
-0.000287294
-8.43124e-05
-0.000328219
-5.07974e-05
-0.000322669
-2.38683e-05
-0.000286585
-7.34323e-06
-0.000242934
1.19727e-06
-0.000207573
4.64764e-06
-0.000181466
5.1995e-06
-0.00016175
-0.000146303
3.90049e-06
-4.43609e-06
0.000217698
-7.29904e-06
0.000447087
-2.27482e-05
0.000528311
-1.97631e-05
0.000396794
-2.79331e-05
0.000359166
-3.61199e-05
0.00040013
-4.26832e-05
0.00041771
-4.27856e-05
0.000394787
-3.93283e-05
0.000339416
-3.30695e-05
0.000263068
-2.33373e-05
0.000171404
-1.41123e-05
5.50665e-05
-9.63198e-06
-7.57946e-05
-7.62849e-06
-0.000199635
-2.84196e-06
-0.000292081
4.73652e-06
-0.000335797
1.47616e-05
-0.000332693
2.39343e-05
-0.000295757
2.84837e-05
-0.000247483
2.81445e-05
-0.000207234
2.52652e-05
-0.000178587
2.12773e-05
-0.000157762
-0.000141794
1.67689e-05
2.95799e-06
0.00021474
1.09194e-05
0.000439125
1.43463e-05
0.000524883
1.0803e-05
0.000400336
1.16876e-05
0.000358281
2.75653e-05
0.000384252
4.87216e-05
0.000396554
7.13218e-05
0.000372186
9.42305e-05
0.000316507
0.000117435
0.000239864
0.000140607
0.000148232
0.00015314
4.25339e-05
0.000155061
-7.77154e-05
0.000145299
-0.000189872
0.00012864
-0.000275422
0.000111602
-0.000318759
9.55645e-05
-0.000316656
8.14892e-05
-0.000281682
6.9098e-05
-0.000235092
5.75699e-05
-0.000195706
4.71518e-05
-0.000168169
3.79626e-05
-0.000148572
-0.000133657
2.98257e-05
4.64358e-06
0.000210097
1.05947e-05
0.000433174
3.35356e-05
0.000501942
3.42722e-05
0.0003996
4.33651e-05
0.000349188
8.25807e-05
0.000345036
0.000134042
0.000345092
0.000185247
0.000320981
0.000231642
0.000270113
0.000270836
0.00020067
0.000300976
0.000118092
0.000318106
2.54041e-05
0.000316194
-7.58035e-05
0.000294516
-0.000168195
0.000258436
-0.000239341
0.000216701
-0.000277024
0.000175633
-0.000275588
0.000138848
-0.000244896
0.000108924
-0.000205168
8.57121e-05
-0.000172494
6.77752e-05
-0.000150232
5.35598e-05
-0.000134357
-0.000122045
4.19474e-05
5.43593e-06
0.000204661
1.63294e-05
0.000422281
5.15607e-05
0.000466711
4.81907e-05
0.00040297
6.17815e-05
0.000335597
0.000112623
0.000294195
0.00018696
0.000270754
0.000265481
0.000242461
0.00033581
0.000199783
0.000391877
0.000144603
0.000430359
7.96101e-05
0.00044844
7.32343e-06
0.000440569
-6.79325e-05
0.000408801
-0.000136428
0.000358743
-0.000189283
0.000299049
-0.00021733
0.000238373
-0.000214912
0.000183904
-0.000190427
0.000140361
-0.000161625
0.000108133
-0.000140267
8.44252e-05
-0.000126524
6.63526e-05
-0.000116284
-0.000107741
5.20489e-05
7.57951e-06
0.000197081
4.95986e-05
0.000380261
7.94236e-05
0.000436886
8.64157e-05
0.000395978
0.000110769
0.000311244
0.000163243
0.000241721
0.000239945
0.000194052
0.000326909
0.000155498
0.000409266
0.000117426
0.000475991
7.7877e-05
0.000519496
3.61049e-05
0.000534566
-7.74685e-06
0.000519917
-5.32828e-05
0.000478838
-9.53491e-05
0.000417953
-0.000128398
0.000345708
-0.000145084
0.000272399
-0.000141603
0.000207822
-0.00012585
0.000157617
-0.00011142
0.000121423
-0.000104072
9.50757e-05
-0.000100177
7.50711e-05
-9.62798e-05
-9.19922e-05
5.93222e-05
1.98782e-05
0.000177203
8.08384e-05
0.000319301
0.000136216
0.000381508
0.000181526
0.000350668
0.000222121
0.00027065
0.000273593
0.000190248
0.000340376
0.000127269
0.000415703
8.01705e-05
0.000486841
4.6289e-05
0.000542557
2.21609e-05
0.000574243
4.41857e-06
0.00057709
-1.05941e-05
0.000550068
-2.62615e-05
0.00049771
-4.29906e-05
0.000427309
-5.79967e-05
0.000347985
-6.57611e-05
0.000271196
-6.48126e-05
0.000206645
-6.13001e-05
0.000158689
-6.34631e-05
0.000124444
-6.9827e-05
9.89938e-05
-7.47268e-05
7.92245e-05
-7.65109e-05
-7.61994e-05
6.34311e-05
2.05213e-05
0.000156682
7.74001e-05
0.000262422
0.00014036
0.000318548
0.000199467
0.000291562
0.000255425
0.000214691
0.000313583
0.000132091
0.000373668
6.71844e-05
0.000432581
2.12575e-05
0.000486142
-7.27211e-06
0.000525144
-1.68413e-05
0.000541758
-1.21954e-05
0.000532498
-1.33405e-06
0.000497634
8.60279e-06
0.000441931
1.27118e-05
0.000372731
1.12041e-05
0.000299723
7.24695e-06
0.000234257
6.53215e-07
0.000182788
-9.83076e-06
0.000146012
-2.6686e-05
0.00011867
-4.24855e-05
9.69313e-05
-5.29882e-05
7.91885e-05
-5.87685e-05
-6.15643e-05
6.4553e-05
9.36971e-06
0.000147312
5.63316e-05
0.00021546
0.000116302
0.000258577
0.000175316
0.000232548
0.000226584
0.000163422
0.000271676
8.6999e-05
0.000315444
2.34164e-05
0.000356256
-1.95546e-05
0.000389342
-4.03582e-05
0.000409267
-3.67657e-05
0.000412377
-1.53053e-05
0.000396422
1.46212e-05
0.000363471
4.15533e-05
0.000317892
5.8291e-05
0.000266205
6.28921e-05
0.000216645
5.68065e-05
0.000176174
4.11247e-05
0.000148064
1.82794e-05
0.000126475
-5.09679e-06
0.000107643
-2.36531e-05
9.07559e-05
-3.61013e-05
7.59923e-05
-4.40052e-05
-4.88311e-05
6.32589e-05
8.84904e-06
0.000138463
3.40146e-05
0.000190295
8.51849e-05
0.000207407
0.000138925
0.000178808
0.000180036
0.00012231
0.000206515
6.05211e-05
0.000223466
6.46521e-06
0.000235525
-3.16141e-05
0.000242379
-4.72115e-05
0.000242815
-3.7202e-05
0.000237879
-1.03693e-05
0.000225778
2.6722e-05
0.000206873
6.04594e-05
0.000183884
8.128e-05
0.000160625
8.61513e-05
0.000141583
7.58486e-05
0.000128495
5.42124e-05
0.000118269
2.85056e-05
0.000107315
5.85784e-06
9.49533e-05
-1.12914e-05
8.25133e-05
-2.36614e-05
7.08521e-05
-3.23441e-05
-3.82559e-05
6.02769e-05
1.09882e-05
0.000127475
3.03473e-05
0.000170935
6.94625e-05
0.000168291
0.000109219
0.000139052
0.00013423
9.72997e-05
0.000142384
5.23662e-05
0.00013904
9.80964e-06
0.000129362
-2.19364e-05
0.000117262
-3.51105e-05
0.000105777
-2.57178e-05
9.58172e-05
-4.09151e-07
8.91034e-05
3.34358e-05
8.55286e-05
6.40343e-05
8.50006e-05
8.1808e-05
8.76655e-05
8.34865e-05
9.25161e-05
7.09982e-05
9.60951e-05
5.06337e-05
9.52623e-05
2.93387e-05
9.0132e-05
1.09883e-05
8.24063e-05
-3.56562e-06
7.36327e-05
-1.48879e-05
6.47636e-05
-2.34749e-05
-2.97727e-05
5.62804e-05
1.21334e-05
0.000115341
3.2117e-05
0.000150951
6.11843e-05
0.000139223
8.70384e-05
0.000113197
0.000100796
8.3542e-05
0.000100663
5.24988e-05
8.84372e-05
2.20356e-05
6.93431e-05
-2.84205e-06
4.8209e-05
-1.39761e-05
3.03003e-05
-7.80902e-06
1.86837e-05
1.12073e-05
1.65649e-05
3.55546e-05
2.3713e-05
5.68862e-05
3.73069e-05
6.82143e-05
5.34337e-05
6.73598e-05
6.7283e-05
5.71491e-05
7.54951e-05
4.24218e-05
7.77533e-05
2.70808e-05
7.56989e-05
1.30427e-05
7.10645e-05
1.06877e-06
6.50302e-05
-8.85359e-06
5.84405e-05
-1.68852e-05
-2.31372e-05
5.1805e-05
1.16232e-05
0.000103718
3.05378e-05
0.000132037
5.22396e-05
0.000117521
6.98013e-05
9.56356e-05
7.86236e-05
7.47196e-05
7.71093e-05
5.40131e-05
6.57627e-05
3.33823e-05
4.68025e-05
1.61185e-05
2.57061e-05
7.12058e-06
8.81334e-06
9.08369e-06
2.0274e-07
1.98179e-05
1.29264e-06
3.44648e-05
1.13327e-05
4.68464e-05
2.67131e-05
5.28341e-05
4.23721e-05
5.1701e-05
5.45028e-05
4.50187e-05
6.17012e-05
3.52237e-05
6.44607e-05
2.43215e-05
6.39222e-05
1.35813e-05
6.12188e-05
3.77218e-06
5.71321e-05
-4.76679e-06
5.2311e-05
-1.20641e-05
-1.80411e-05
4.72149e-05
1.01013e-05
9.36163e-05
2.61445e-05
0.000115993
4.26549e-05
0.000101011
5.5279e-05
8.30115e-05
6.18106e-05
6.81879e-05
6.13864e-05
5.44376e-05
5.4082e-05
4.06873e-05
4.13719e-05
2.88291e-05
2.66596e-05
2.18329e-05
1.45449e-05
2.11985e-05
8.4934e-06
2.58696e-05
9.87114e-06
3.30874e-05
1.73668e-05
3.9351e-05
2.78625e-05
4.23386e-05
3.82469e-05
4.13169e-05
4.64573e-05
3.68086e-05
5.17567e-05
2.99245e-05
5.4259e-05
2.18195e-05
5.44194e-05
1.34211e-05
5.28563e-05
5.33545e-06
5.00933e-05
-2.00357e-06
4.65854e-05
-8.55618e-06
-1.41614e-05
4.27058e-05
8.45988e-06
8.51564e-05
2.14507e-05
0.000103002
3.40659e-05
8.83955e-05
4.33689e-05
7.37088e-05
4.8402e-05
6.31551e-05
4.89786e-05
5.38616e-05
4.51927e-05
4.44738e-05
3.79618e-05
3.60602e-05
2.93627e-05
3.0432e-05
2.20857e-05
2.84757e-05
1.82436e-05
2.97119e-05
1.87038e-05
3.26275e-05
2.27474e-05
3.53076e-05
2.87645e-05
3.63218e-05
3.50749e-05
3.50066e-05
4.04523e-05
3.14315e-05
4.42487e-05
2.61282e-05
4.62879e-05
1.97805e-05
4.67033e-05
1.30059e-05
4.57869e-05
6.25201e-06
4.38917e-05
-1.08183e-07
4.13055e-05
-5.9698e-06
-1.11697e-05
3.83139e-05
7.07626e-06
7.808e-05
1.74503e-05
9.26282e-05
2.71247e-05
7.87214e-05
3.40558e-05
6.67781e-05
3.79355e-05
5.92758e-05
3.89518e-05
5.28459e-05
3.73252e-05
4.61007e-05
3.36005e-05
3.97848e-05
2.89347e-05
3.50978e-05
2.48031e-05
3.26074e-05
2.24523e-05
3.20629e-05
2.24721e-05
3.26078e-05
2.46287e-05
3.31512e-05
2.81545e-05
3.27963e-05
3.21101e-05
3.10512e-05
3.56873e-05
2.78544e-05
3.83628e-05
2.34527e-05
3.99109e-05
1.82324e-05
4.03304e-05
1.25865e-05
3.97328e-05
6.8497e-06
3.83525e-05
1.27223e-06
3.63558e-05
-3.97303e-06
-8.76135e-06
3.39475e-05
5.95967e-06
7.21203e-05
1.42358e-05
8.43524e-05
2.16847e-05
7.1273e-05
2.69586e-05
6.15044e-05
3.00504e-05
5.61844e-05
3.12655e-05
5.16309e-05
3.08221e-05
4.65439e-05
2.90697e-05
4.15371e-05
2.66698e-05
3.74978e-05
2.44611e-05
3.48162e-05
2.31834e-05
3.33407e-05
2.32327e-05
3.25586e-05
2.45595e-05
3.18245e-05
2.67727e-05
3.05832e-05
2.93259e-05
2.8498e-05
3.17027e-05
2.54775e-05
3.35309e-05
2.16245e-05
3.46106e-05
1.71527e-05
3.4885e-05
1.23121e-05
3.43974e-05
7.33745e-06
3.32562e-05
2.41359e-06
3.15704e-05
-2.28711e-06
-6.67465e-06
2.94839e-05
5.08201e-06
6.70386e-05
1.16625e-05
7.77723e-05
1.74306e-05
6.55052e-05
2.15288e-05
5.74063e-05
2.40995e-05
5.36139e-05
2.54374e-05
5.02928e-05
2.57019e-05
4.62793e-05
2.51009e-05
4.21382e-05
2.40272e-05
3.85718e-05
2.29842e-05
3.58593e-05
2.2424e-05
3.39009e-05
2.26029e-05
3.23798e-05
2.35208e-05
3.09067e-05
2.49674e-05
2.91368e-05
2.66232e-05
2.68422e-05
2.81652e-05