/*--------------------------------*- C++ -*----------------------------------*\
| =========                 |                                                 |
| \\      /  F ield         | OpenFOAM: The Open Source CFD Toolbox           |
|  \\    /   O peration     | Version:  2206                                  |
|   \\  /    A nd           | Website:  www.openfoam.com                      |
|    \\/     M anipulation  |                                                 |
\*---------------------------------------------------------------------------*/
FoamFile
{
    version     2.0;
    format      ascii;
    arch        "LSB;label=32;scalar=64";
    class       volVectorField;
    location    "1";
    object      U;
}
// * * * * * * * * * * * * * * * * * * * * * * * * * * * * * * * * * * * * * //

dimensions      [0 1 -1 0 0 0 0];

internalField   nonuniform List<vector> 
2268
(
(0.0302531 -0.0226816 0)
(0.0749534 -0.0136435 0)
(0.0659501 0.00566682 0)
(0.00438438 0.016855 0)
(-0.0332551 0.00847907 0)
(-0.0177471 -0.00347731 0)
(0.00643955 -0.0029743 0)
(0.00933569 0.00190351 0)
(-0.00659225 0.00483039 0)
(-0.0317429 0.0071892 0)
(-0.0657514 0.0080294 0)
(-0.100004 0.00385501 0)
(-0.118529 -0.00559433 0)
(-0.124344 -0.00754391 0)
(-0.153223 0.0108439 0)
(-0.244793 0.0296853 0)
(-0.335931 0.0200189 0)
(-0.333042 -0.00622746 0)
(-0.261738 -0.0213384 0)
(-0.201921 -0.0205655 0)
(-0.144099 -0.0206401 0)
(-0.0822113 -0.021945 0)
(-0.0245681 -0.0157852 0)
(0.00188449 -0.0311822 0)
(-0.00484447 -0.00411572 0)
(-0.0258497 0.0260991 0)
(-0.0603568 0.0301566 0)
(-0.0566653 0.0050269 0)
(-0.0285468 -0.0160868 0)
(-0.00125559 -0.0104177 0)
(0.00660961 0.00499534 0)
(-0.0115413 0.0150626 0)
(-0.0408775 0.0219853 0)
(-0.077841 0.0255434 0)
(-0.116917 0.0222634 0)
(-0.159815 0.0159927 0)
(-0.219471 0.0256345 0)
(-0.283844 0.0490085 0)
(-0.330108 0.051939 0)
(-0.310081 0.015634 0)
(-0.218651 -0.0313781 0)
(-0.161967 -0.0470974 0)
(-0.122456 -0.0397917 0)
(-0.0844837 -0.0374987 0)
(-0.0517031 -0.0425418 0)
(-0.0108681 -0.0353191 0)
(-0.012473 -0.020747 0)
(-0.0391153 0.00499889 0)
(-0.0661281 0.0345901 0)
(-0.0769839 0.0312022 0)
(-0.0655526 -0.00454186 0)
(-0.0406437 -0.0320551 0)
(-0.0096033 -0.0209257 0)
(0.00154803 0.0067615 0)
(-0.0120234 0.0247679 0)
(-0.0350828 0.0355964 0)
(-0.0622759 0.0415973 0)
(-0.0937186 0.0427833 0)
(-0.136895 0.0430432 0)
(-0.194127 0.0520385 0)
(-0.242015 0.0610565 0)
(-0.239627 0.0382729 0)
(-0.178578 -0.0197149 0)
(-0.124915 -0.0629347 0)
(-0.101488 -0.0678306 0)
(-0.0770833 -0.0569745 0)
(-0.043514 -0.0489639 0)
(-0.0368311 -0.0523993 0)
(-0.00139942 -0.0447435 0)
(-0.00830368 -0.00972921 0)
(-0.0290595 0.0172087 0)
(-0.0533984 0.0412473 0)
(-0.0640044 0.0333391 0)
(-0.0601737 -0.010695 0)
(-0.0367758 -0.0475935 0)
(-0.0127834 -0.0316133 0)
(-0.00442523 0.00780086 0)
(-0.0171431 0.0326463 0)
(-0.0378611 0.0464855 0)
(-0.0609583 0.05373 0)
(-0.0858775 0.0577367 0)
(-0.115295 0.0629848 0)
(-0.143312 0.0701799 0)
(-0.153953 0.0651095 0)
(-0.132796 0.027843 0)
(-0.100777 -0.0288432 0)
(-0.0945438 -0.0659803 0)
(-0.0880582 -0.0735036 0)
(-0.0721016 -0.0670979 0)
(-0.0429127 -0.0572895 0)
(-0.0377088 -0.0605911 0)
(-0.00348492 -0.0522585 0)
(0.00534099 -0.00559723 0)
(0.00533302 0.0244436 0)
(-0.0128204 0.0490916 0)
(-0.0303059 0.0389857 0)
(-0.0315842 -0.0146864 0)
(-0.0129439 -0.0584786 0)
(-0.00607443 -0.03715 0)
(-0.00708086 0.0111276 0)
(-0.0243979 0.0406177 0)
(-0.0466398 0.0565372 0)
(-0.0707193 0.064053 0)
(-0.0941709 0.0681376 0)
(-0.115211 0.0725446 0)
(-0.126175 0.0738258 0)
(-0.120716 0.0583707 0)
(-0.107026 0.0169299 0)
(-0.102915 -0.0336545 0)
(-0.0977343 -0.0704588 0)
(-0.0796596 -0.0822491 0)
(-0.0593699 -0.0776039 0)
(-0.0372584 -0.0664515 0)
(-0.0303135 -0.068908 0)
(-0.00767588 -0.0614723 0)
(0.0243584 -0.0138816 0)
(0.0523213 0.0247291 0)
(0.0446125 0.0572096 0)
(0.0212298 0.047283 0)
(0.0172184 -0.0148083 0)
(0.031939 -0.0615576 0)
(0.0124005 -0.0345181 0)
(-0.00362026 0.0196322 0)
(-0.0295793 0.0519055 0)
(-0.0539325 0.0690926 0)
(-0.0789813 0.0762068 0)
(-0.102799 0.0792685 0)
(-0.123551 0.0810379 0)
(-0.135505 0.0762738 0)
(-0.134537 0.0549515 0)
(-0.126531 0.0136974 0)
(-0.113608 -0.03619 0)
(-0.091446 -0.0797202 0)
(-0.0599391 -0.0969488 0)
(-0.0327951 -0.0895663 0)
(-0.0106691 -0.0766572 0)
(-0.00612635 -0.0754564 0)
(-0.00475826 -0.0711819 0)
(0.0495581 -0.0432107 0)
(0.106119 0.0133738 0)
(0.111575 0.0650307 0)
(0.0819048 0.0583997 0)
(0.0857621 -0.0130981 0)
(0.0856392 -0.0569968 0)
(0.0457786 -0.0240596 0)
(0.0148758 0.034282 0)
(-0.0187073 0.0630376 0)
(-0.0441648 0.0779276 0)
(-0.0687075 0.0837641 0)
(-0.0924958 0.0858045 0)
(-0.115822 0.0867553 0)
(-0.133321 0.0778593 0)
(-0.136026 0.0500355 0)
(-0.126778 0.0062637 0)
(-0.114507 -0.0429601 0)
(-0.106398 -0.093868 0)
(-0.0852772 -0.108415 0)
(-0.0414629 -0.0948557 0)
(0.00887461 -0.0799278 0)
(0.0256287 -0.0715831 0)
(0.0140903 -0.0716119 0)
(0.0826491 -0.0767667 0)
(0.167643 -0.00822369 0)
(0.179102 0.0686137 0)
(0.149334 0.0657418 0)
(0.154485 -0.0119957 0)
(0.122869 -0.0506608 0)
(0.0831879 -0.00689251 0)
(0.0546577 0.0516881 0)
(0.0218628 0.080702 0)
(-0.00508571 0.0964638 0)
(-0.0316676 0.101853 0)
(-0.0571407 0.105121 0)
(-0.0857269 0.107101 0)
(-0.114033 0.093825 0)
(-0.130262 0.0587025 0)
(-0.145067 -0.00126064 0)
(-0.199888 -0.0553855 0)
(-0.283837 -0.0804963 0)
(-0.28493 -0.104017 0)
(-0.170207 -0.113905 0)
(-0.0370271 -0.0957195 0)
(0.041976 -0.0599482 0)
(0.049508 -0.0380691 0)
(0.100264 -0.011511 0)
(-0.142507 0.0327118 0)
(-0.21097 -0.0102243 0)
(-0.00670588 -0.0699266 0)
(0.245774 -0.0715135 0)
(0.432729 -0.00848158 0)
(0.39734 0.0210069 0)
(0.264409 -0.00689584 0)
(0.304363 -0.0383166 0)
(0.39321 -0.0150752 0)
(0.305901 0.038051 0)
(0.0159088 0.0445782 0)
(-0.187046 0.0457124 0)
(-0.302181 0.0471453 0)
(-0.345839 0.0121848 0)
(-0.251867 -0.0247601 0)
(-0.152658 -0.0270662 0)
(-0.0552177 -0.00974052 0)
(0.0318975 0.00192978 0)
(-0.0060441 0.0268209 0)
(-0.196238 0.0805748 0)
(-0.148904 -0.014309 0)
(0.0323829 -0.167887 0)
(0.233023 -0.167858 0)
(0.3519 -0.00582805 0)
(0.395997 0.0486682 0)
(0.203762 0.018078 0)
(0.139634 -0.0135822 0)
(0.118744 0.0231672 0)
(0.284754 0.130137 0)
(-0.0835753 0.147633 0)
(-0.377883 0.0874608 0)
(-0.355738 0.0225397 0)
(-0.281807 -0.0283987 0)
(-0.264647 -0.0545723 0)
(-0.224706 -0.0766569 0)
(-0.104332 -0.0684836 0)
(0.0914055 -0.014337 0)
(-0.0418969 0.0631925 0)
(-0.169442 0.101265 0)
(-0.121073 -0.0593363 0)
(0.0663736 -0.270937 0)
(0.172312 -0.239656 0)
(0.227635 -0.0312095 0)
(0.135683 0.110639 0)
(-0.242237 0.0989717 0)
(-0.21846 -0.0525332 0)
(-0.124085 -0.0492423 0)
(0.0683626 0.176926 0)
(-0.212934 0.249947 0)
(-0.38622 0.12599 0)
(-0.27927 0.0120303 0)
(-0.304344 -0.00930744 0)
(-0.41532 -0.0407073 0)
(-0.389233 -0.123917 0)
(-0.20561 -0.140501 0)
(0.0449213 -0.0127275 0)
(-0.034492 0.0938168 0)
(-0.11258 0.113197 0)
(-0.0862307 -0.094469 0)
(0.0655983 -0.3343 0)
(0.0321322 -0.240645 0)
(-0.027713 0.0724872 0)
(-0.271659 0.217243 0)
(-0.488249 0.0987576 0)
(-0.338577 -0.127625 0)
(-0.312241 -0.0650727 0)
(-0.178261 0.209168 0)
(-0.281438 0.30321 0)
(-0.316005 0.117491 0)
(-0.249681 0.00824984 0)
(-0.448819 0.047719 0)
(-0.628831 -0.0121196 0)
(-0.544804 -0.157741 0)
(-0.248958 -0.218637 0)
(-0.0432763 -0.104336 0)
(-0.00678705 0.111652 0)
(-0.0395067 0.121075 0)
(-0.0224751 -0.110104 0)
(0.0604188 -0.33205 0)
(-0.138803 -0.167963 0)
(-0.314186 0.173514 0)
(-0.526294 0.281902 0)
(-0.490919 0.0942618 0)
(-0.396582 -0.152479 0)
(-0.438658 -0.0760178 0)
(-0.332696 0.207168 0)
(-0.300755 0.305305 0)
(-0.298951 0.122519 0)
(-0.404497 0.0646257 0)
(-0.731408 0.148258 0)
(-0.920253 0.0484768 0)
(-0.515015 -0.319738 0)
(-0.152932 -0.276276 0)
(0.0482942 -0.14743 0)
(0.031322 0.110066 0)
(0.0406773 0.123732 0)
(0.0699072 -0.108621 0)
(0.0826345 -0.277423 0)
(-0.26195 -0.0762374 0)
(-0.479636 0.256742 0)
(-0.553049 0.310679 0)
(-0.400251 0.100622 0)
(-0.455293 -0.160512 0)
(-0.506934 -0.0688104 0)
(-0.416303 0.179261 0)
(-0.306237 0.270852 0)
(-0.321162 0.146065 0)
(-0.633505 0.184934 0)
(-1.12772 0.32821 0)
(-0.942471 -0.0776004 0)
(-0.490966 -0.520656 0)
(-0.129904 -0.417881 0)
(0.122156 -0.160047 0)
(0.068673 0.0814848 0)
(0.126049 0.113558 0)
(0.172979 -0.0901932 0)
(0.152316 -0.203079 0)
(-0.2609 0.0187086 0)
(-0.488829 0.315529 0)
(-0.411058 0.292296 0)
(-0.376772 0.0378784 0)
(-0.53772 -0.148352 0)
(-0.565547 -0.0710036 0)
(-0.4557 0.127094 0)
(-0.337881 0.231135 0)
(-0.48743 0.246602 0)
(-0.985749 0.372263 0)
(-1.16923 0.34029 0)
(-0.792261 -0.264801 0)
(-0.463886 -0.679005 0)
(-0.122491 -0.590207 0)
(0.176694 -0.126005 0)
(0.0909406 0.013401 0)
(0.196197 0.0693828 0)
(0.272558 -0.0669792 0)
(0.247676 -0.122773 0)
(-0.111367 0.110209 0)
(-0.357224 0.35001 0)
(-0.188532 0.320034 0)
(-0.344102 0.0834932 0)
(-0.633925 -0.109125 0)
(-0.676097 -0.0792294 0)
(-0.575813 0.0962235 0)
(-0.557886 0.265164 0)
(-0.783362 0.366467 0)
(-1.17683 0.407012 0)
(-1.08747 0.100741 0)
(-0.799705 -0.477442 0)
(-0.46656 -0.862998 0)
(-0.127037 -0.783813 0)
(0.321508 -0.121546 0)
(0.0849871 -0.197984 0)
(0.257538 -0.0503311 0)
(0.304567 0.0876087 0)
(0.269289 0.0970351 0)
(0.224573 0.0266969 0)
(0.141928 -0.0214069 0)
(0.0997648 0.00421014 0)
(0.0794289 0.0655129 0)
(0.00636884 0.0838442 0)
(-0.0444674 0.106104 0)
(-0.0718029 0.115442 0)
(-0.0889171 0.114197 0)
(-0.12804 0.0971175 0)
(-0.203297 0.0626094 0)
(-0.337936 0.0487902 0)
(-0.604204 0.111898 0)
(-0.937492 0.164678 0)
(-0.894297 -0.0580783 0)
(-0.639597 -0.293745 0)
(-0.393931 -0.311744 0)
(-0.193167 -0.238703 0)
(-0.0232523 -0.135083 0)
(0.0781602 -0.0327408 0)
(0.030649 -0.452523 0)
(0.236942 -0.2509 0)
(0.335637 0.0629618 0)
(0.34483 0.160175 0)
(0.293956 0.113664 0)
(0.223065 0.0562872 0)
(0.0821179 0.0435608 0)
(-0.0306687 0.169707 0)
(-0.237443 0.235888 0)
(-0.385697 0.201152 0)
(-0.475391 0.124007 0)
(-0.535465 0.114025 0)
(-0.651618 0.227472 0)
(-0.958677 0.363786 0)
(-1.30577 0.504277 0)
(-1.47919 0.471549 0)
(-1.27624 -0.00491417 0)
(-0.933635 -0.432429 0)
(-0.696905 -0.56111 0)
(-0.51552 -0.528513 0)
(-0.377954 -0.430473 0)
(-0.256869 -0.313785 0)
(-0.124448 -0.199999 0)
(-0.0571931 -0.559768 0)
(0.09156 -0.329734 0)
(0.168745 -0.0742198 0)
(0.212396 0.0867367 0)
(0.19112 0.142552 0)
(0.0827117 0.128933 0)
(-0.312041 0.31941 0)
(-0.729055 0.424746 0)
(-0.888641 0.345637 0)
(-0.88833 0.280598 0)
(-0.934241 0.265108 0)
(-1.15057 0.378765 0)
(-1.34908 0.582513 0)
(-1.48748 0.664089 0)
(-1.49288 0.562805 0)
(-1.31485 0.206464 0)
(-1.11942 -0.284868 0)
(-0.997237 -0.605099 0)
(-0.874308 -0.724414 0)
(-0.770694 -0.649243 0)
(-0.703901 -0.518396 0)
(-0.631573 -0.416566 0)
(-0.525618 -0.340276 0)
(-0.179853 -0.424277 0)
(-0.226748 -0.186341 0)
(-0.22769 -0.0206357 0)
(-0.137747 0.0805129 0)
(-0.220821 0.249577 0)
(-0.526915 0.524359 0)
(-1.01524 0.726089 0)
(-1.3693 0.58987 0)
(-1.4592 0.367698 0)
(-1.42575 0.291204 0)
(-1.33492 0.35157 0)
(-1.31709 0.489268 0)
(-1.31514 0.591974 0)
(-1.27235 0.510108 0)
(-1.16904 0.298353 0)
(-1.1245 0.0412407 0)
(-1.19895 -0.331723 0)
(-1.15912 -0.755456 0)
(-1.07716 -0.837817 0)
(-1.04346 -0.68772 0)
(-1.04542 -0.514932 0)
(-1.09083 -0.396766 0)
(-1.09018 -0.336984 0)
(-0.236903 -0.201141 0)
(-0.493518 -0.185485 0)
(-0.749135 -0.115896 0)
(-0.818411 0.236047 0)
(-0.96154 0.636369 0)
(-1.20937 1.03923 0)
(-1.39052 1.12236 0)
(-1.45084 0.762135 0)
(-1.44824 0.324845 0)
(-1.43989 0.113218 0)
(-1.38618 0.126252 0)
(-1.28904 0.296474 0)
(-1.1621 0.452538 0)
(-1.07246 0.457321 0)
(-1.06129 0.334421 0)
(-1.16191 0.168522 0)
(-1.21211 -0.27618 0)
(-1.13906 -0.773496 0)
(-1.15429 -0.834063 0)
(-1.15915 -0.665577 0)
(-1.21886 -0.436314 0)
(-1.43443 -0.291784 0)
(-1.59076 -0.519283 0)
(-0.186477 0.0815544 0)
(-0.440045 0.414736 0)
(-0.973329 0.107011 0)
(-1.15861 0.241122 0)
(-1.09018 0.609493 0)
(-0.971965 0.992686 0)
(-0.968731 1.12713 0)
(-0.932228 0.960533 0)
(-1.25158 0.630824 0)
(-1.50739 0.242877 0)
(-1.54028 0.24167 0)
(-1.42835 0.356134 0)
(-1.20474 0.45146 0)
(-0.995311 0.505115 0)
(-0.900687 0.493936 0)
(-0.953044 0.360589 0)
(-1.02613 -0.12828 0)
(-1.10922 -0.723095 0)
(-1.19092 -0.784726 0)
(-1.18511 -0.622625 0)
(-1.15685 -0.375549 0)
(-1.10545 -0.172382 0)
(-1.06407 -0.302178 0)
(-0.133221 0.283082 0)
(-0.430192 0.895355 0)
(-1.0967 0.348041 0)
(-1.21444 0.253405 0)
(-1.0774 0.465689 0)
(-0.859858 0.749123 0)
(-0.682395 0.925421 0)
(-0.610635 1.04832 0)
(-0.976837 0.924778 0)
(-1.42941 0.413373 0)
(-1.57319 0.0807527 0)
(-1.49232 -0.0354327 0)
(-1.35459 -0.0601037 0)
(-1.19119 0.0265073 0)
(-0.976165 0.240805 0)
(-0.858638 0.343323 0)
(-0.914566 -0.0932112 0)
(-1.05248 -0.627041 0)
(-1.17181 -0.743326 0)
(-1.15563 -0.623798 0)
(-1.04648 -0.485518 0)
(-0.878148 -0.354991 0)
(-0.678938 -0.40042 0)
(-0.110932 0.41899 0)
(-0.141776 1.60055 0)
(-0.786864 0.714465 0)
(-0.984904 0.208565 0)
(-1.00292 0.363014 0)
(-0.932794 0.605011 0)
(-0.821732 0.821745 0)
(-0.781373 1.18037 0)
(-0.945995 1.2801 0)
(-1.24881 0.781919 0)
(-1.32748 0.357303 0)
(-1.34849 0.150556 0)
(-1.37143 0.072938 0)
(-1.36329 0.0844044 0)
(-1.27774 0.199593 0)
(-1.07712 0.271305 0)
(-0.913325 -0.0544264 0)
(-0.927241 -0.54602 0)
(-1.01649 -0.699178 0)
(-1.05705 -0.698365 0)
(-0.995367 -0.636623 0)
(-0.88166 -0.54 0)
(-0.733146 -0.528867 0)
(-0.124342 0.470121 0)
(0.00361271 2.03058 0)
(-0.491577 1.26646 0)
(-0.554026 0.426124 0)
(-0.776868 0.382895 0)
(-0.884411 0.572874 0)
(-0.927289 0.852909 0)
(-0.974941 1.27193 0)
(-1.05322 1.45 0)
(-1.14372 0.906963 0)
(-1.15934 0.36964 0)
(-1.21161 0.107842 0)
(-1.25954 0.0174994 0)
(-1.25158 -0.00691726 0)
(-1.15958 0.0197084 0)
(-0.96747 -0.0126228 0)
(-0.786712 -0.244633 0)
(-0.729207 -0.505479 0)
(-0.721318 -0.599712 0)
(-0.744622 -0.626106 0)
(-0.826198 -0.71631 0)
(-0.890998 -0.717188 0)
(-0.828327 -0.719685 0)
(-0.150388 0.498074 0)
(0.0528465 2.18549 0)
(-0.456576 1.47125 0)
(-0.603964 0.701449 0)
(-0.912238 0.562615 0)
(-1.06182 0.631906 0)
(-1.14646 0.928665 0)
(-1.15041 1.3221 0)
(-1.10414 1.36741 0)
(-1.0079 0.857241 0)
(-0.962848 0.370525 0)
(-0.981215 0.140077 0)
(-0.961704 0.0106665 0)
(-0.898102 -0.0763524 0)
(-0.805954 -0.113416 0)
(-0.683979 -0.180073 0)
(-0.586116 -0.353863 0)
(-0.558525 -0.548616 0)
(-0.561086 -0.631001 0)
(-0.543363 -0.592052 0)
(-0.452694 -0.514111 0)
(-0.350834 -0.597582 0)
(-0.432388 -0.75014 0)
(-0.185005 0.51246 0)
(0.0811012 2.38253 0)
(-0.454549 1.63355 0)
(-0.618386 0.992287 0)
(-0.984771 0.812353 0)
(-1.15937 0.785116 0)
(-1.24359 0.964011 0)
(-1.17459 1.20823 0)
(-0.995906 1.1652 0)
(-0.805284 0.746515 0)
(-0.708194 0.355403 0)
(-0.661898 0.127743 0)
(-0.610505 -0.0258253 0)
(-0.568806 -0.11871 0)
(-0.511594 -0.179631 0)
(-0.435851 -0.258689 0)
(-0.37892 -0.383989 0)
(-0.368756 -0.523375 0)
(-0.393789 -0.623785 0)
(-0.422041 -0.68923 0)
(-0.418258 -0.70851 0)
(-0.384529 -0.668741 0)
(-0.315885 -0.553857 0)
(-0.23239 0.545441 0)
(0.0974231 2.53716 0)
(-0.434352 1.84276 0)
(-0.522028 1.29187 0)
(-0.85783 1.05169 0)
(-0.986807 0.930262 0)
(-1.05742 0.967639 0)
(-0.968853 1.04443 0)
(-0.767702 0.935983 0)
(-0.575465 0.607519 0)
(-0.481669 0.292269 0)
(-0.451071 0.0806325 0)
(-0.449649 -0.0527028 0)
(-0.448122 -0.139719 0)
(-0.416219 -0.218213 0)
(-0.364491 -0.305128 0)
(-0.316721 -0.408575 0)
(-0.289829 -0.510241 0)
(-0.285085 -0.580869 0)
(-0.29378 -0.629422 0)
(-0.310719 -0.675813 0)
(-0.33495 -0.731263 0)
(-0.328589 -0.748075 0)
(-0.297923 0.605498 0)
(0.232546 2.75665 0)
(-0.291673 2.11054 0)
(-0.344555 1.51916 0)
(-0.630307 1.22615 0)
(-0.67382 1.02927 0)
(-0.72916 0.960424 0)
(-0.676009 0.922804 0)
(-0.549232 0.770009 0)
(-0.452284 0.50492 0)
(-0.45539 0.263744 0)
(-0.510687 0.0935428 0)
(-0.55007 -0.0411019 0)
(-0.545708 -0.164479 0)
(-0.506183 -0.275552 0)
(-0.445054 -0.378004 0)
(-0.381547 -0.472891 0)
(-0.328857 -0.552383 0)
(-0.288622 -0.608197 0)
(-0.259074 -0.644294 0)
(-0.242036 -0.662732 0)
(-0.239727 -0.671162 0)
(-0.240635 -0.68203 0)
(-0.367566 0.647537 0)
(0.422514 2.61889 0)
(0.142837 2.53879 0)
(-0.121599 1.72107 0)
(-0.392563 1.34954 0)
(-0.394649 1.0877 0)
(-0.474807 0.969045 0)
(-0.490657 0.884082 0)
(-0.488956 0.724699 0)
(-0.531248 0.520043 0)
(-0.625627 0.330394 0)
(-0.701827 0.152825 0)
(-0.723172 -0.0252576 0)
(-0.695199 -0.190016 0)
(-0.632076 -0.331784 0)
(-0.551037 -0.449068 0)
(-0.468104 -0.542969 0)
(-0.392526 -0.612894 0)
(-0.327983 -0.658591 0)
(-0.275819 -0.683997 0)
(-0.235973 -0.695914 0)
(-0.206727 -0.701219 0)
(-0.189404 -0.701279 0)
(-0.40032 0.658676 0)
(0.272265 1.85098 0)
(0.569224 2.77035 0)
(-0.0161213 1.9891 0)
(-0.208365 1.4766 0)
(-0.23486 1.15429 0)
(-0.378628 1.03383 0)
(-0.481088 0.950573 0)
(-0.60495 0.813352 0)
(-0.750451 0.639765 0)
(-0.881934 0.435718 0)
(-0.951077 0.203107 0)
(-0.950729 -0.0338492 0)
(-0.888243 -0.246256 0)
(-0.783524 -0.417652 0)
(-0.662391 -0.545169 0)
(-0.546313 -0.635039 0)
(-0.445175 -0.693845 0)
(-0.361533 -0.726908 0)
(-0.294382 -0.739908 0)
(-0.24108 -0.73836 0)
(-0.2002 -0.728278 0)
(-0.174408 -0.716071 0)
(-0.393672 0.606589 0)
(0.339771 1.76955 0)
(0.305089 2.95029 0)
(-0.107381 2.21621 0)
(-0.121833 1.6034 0)
(-0.206549 1.26779 0)
(-0.415599 1.18034 0)
(-0.606986 1.11378 0)
(-0.83063 0.98617 0)
(-1.0383 0.797016 0)
(-1.19138 0.539144 0)
(-1.26071 0.230431 0)
(-1.24 -0.0823522 0)
(-1.13324 -0.355853 0)
(-0.969472 -0.55945 0)
(-0.787001 -0.689078 0)
(-0.619707 -0.763059 0)
(-0.482782 -0.799841 0)
(-0.376345 -0.811179 0)
(-0.296552 -0.805787 0)
(-0.237296 -0.790006 0)
(-0.193833 -0.768778 0)
(-0.162991 -0.744061 0)
(-0.34886 0.50094 0)
(0.315613 1.83472 0)
(-0.193217 3.02221 0)
(-0.177961 2.34504 0)
(-0.15211 1.68928 0)
(-0.270223 1.43407 0)
(-0.53166 1.40394 0)
(-0.793237 1.36234 0)
(-1.07112 1.23096 0)
(-1.30545 0.993637 0)
(-1.47585 0.651402 0)
(-1.54952 0.245782 0)
(-1.51088 -0.165227 0)
(-1.37041 -0.524331 0)
(-1.15421 -0.774913 0)
(-0.908108 -0.903168 0)
(-0.679073 -0.944563 0)
(-0.499386 -0.940371 0)
(-0.367101 -0.915355 0)
(-0.274184 -0.880709 0)
(-0.210281 -0.842354 0)
(-0.168057 -0.80451 0)
(-0.142138 -0.768728 0)
(-0.27867 0.408669 0)
(0.196755 1.85121 0)
(-0.518868 3.03858 0)
(-0.173684 2.34876 0)
(-0.241145 1.74578 0)
(-0.358968 1.64388 0)
(-0.65604 1.67882 0)
(-0.940677 1.64903 0)
(-1.21288 1.48159 0)
(-1.4251 1.18839 0)
(-1.57618 0.788473 0)
(-1.64224 0.273678 0)
(-1.60694 -0.274718 0)
(-1.47086 -0.731085 0)
(-1.24163 -1.0471 0)
(-0.968239 -1.18419 0)
(-0.69269 -1.18415 0)
(-0.476667 -1.11772 0)
(-0.324609 -1.03881 0)
(-0.224548 -0.963868 0)
(-0.160203 -0.896366 0)
(-0.120842 -0.836814 0)
(-0.10072 -0.78546 0)
(-0.464453 0.75128 0)
(-0.186252 2.06753 0)
(-0.704788 2.98187 0)
(-0.158183 2.2744 0)
(-0.316841 1.81057 0)
(-0.398505 1.86947 0)
(-0.682894 1.95401 0)
(-0.919773 1.9069 0)
(-1.12725 1.6734 0)
(-1.27471 1.30023 0)
(-1.38234 0.803511 0)
(-1.43632 0.204576 0)
(-1.41365 -0.405806 0)
(-1.30053 -0.951514 0)
(-1.10522 -1.32954 0)
(-0.869816 -1.48832 0)
(-0.608492 -1.45394 0)
(-0.384698 -1.31657 0)
(-0.231742 -1.16837 0)
(-0.138811 -1.04443 0)
(-0.0850973 -0.945082 0)
(-0.0555516 -0.863156 0)
(-0.0436331 -0.795717 0)
(-0.664319 1.11773 0)
(0.0104295 2.33575 0)
(-0.688339 2.81974 0)
(-0.0773719 2.18756 0)
(-0.321234 1.87478 0)
(-0.325554 2.05728 0)
(-0.540777 2.16085 0)
(-0.675122 2.08246 0)
(-0.77917 1.80554 0)
(-0.846357 1.41807 0)
(-0.904222 0.938968 0)
(-0.92822 0.300789 0)
(-0.883302 -0.436864 0)
(-0.806057 -1.08739 0)
(-0.683974 -1.53395 0)
(-0.532146 -1.72939 0)
(-0.368711 -1.6866 0)
(-0.197915 -1.49652 0)
(-0.0771689 -1.28021 0)
(-0.0120605 -1.10667 0)
(0.016962 -0.976698 0)
(0.0268854 -0.876042 0)
(0.0245716 -0.796081 0)
(-0.746358 1.1899 0)
(0.558956 2.45114 0)
(-0.466183 2.77081 0)
(0.119423 2.13283 0)
(-0.228677 1.91877 0)
(-0.110873 2.16179 0)
(-0.23896 2.2602 0)
(-0.254829 2.14856 0)
(-0.240566 1.85283 0)
(-0.218132 1.44501 0)
(-0.190514 0.967925 0)
(-0.115605 0.334439 0)
(-0.0359576 -0.407442 0)
(-0.021148 -1.1015 0)
(-0.0132098 -1.6046 0)
(0.0153258 -1.83392 0)
(0.044959 -1.807 0)
(0.0915876 -1.60079 0)
(0.135724 -1.3423 0)
(0.149561 -1.13127 0)
(0.141231 -0.979401 0)
(0.123023 -0.867365 0)
(0.100897 -0.780822 0)
(-0.761027 1.17129 0)
(0.510004 2.37042 0)
(-0.127727 2.84121 0)
(0.251003 2.15033 0)
(-0.0525884 1.94658 0)
(0.159553 2.15557 0)
(0.183625 2.24573 0)
(0.292985 2.11475 0)
(0.42366 1.81176 0)
(0.543333 1.39342 0)
(0.66662 0.898978 0)
(0.787114 0.297677 0)
(0.872605 -0.375346 0)
(0.866682 -1.038 0)
(0.77472 -1.54256 0)
(0.662457 -1.79212 0)
(0.552528 -1.78129 0)
(0.455576 -1.58564 0)
(0.388179 -1.3224 0)
(0.331232 -1.10011 0)
(0.275381 -0.943589 0)
(0.224183 -0.831655 0)
(0.179453 -0.746582 0)
(-0.719068 1.14464 0)
(0.499004 2.32554 0)
(-0.0671996 2.79159 0)
(0.301946 2.15008 0)
(0.122656 1.91493 0)
(0.355347 2.00406 0)
(0.574305 2.06533 0)
(0.835807 1.9467 0)
(1.10603 1.66327 0)
(1.33935 1.2654 0)
(1.53221 0.790287 0)
(1.67383 0.247171 0)
(1.74623 -0.356227 0)
(1.69228 -0.937797 0)
(1.5244 -1.38548 0)
(1.29406 -1.62057 0)
(1.04938 -1.61818 0)
(0.822831 -1.44098 0)
(0.640927 -1.20437 0)
(0.507188 -1.00412 0)
(0.402854 -0.865495 0)
(0.319335 -0.767376 0)
(0.252815 -0.69254 0)
(-0.640639 1.11985 0)
(0.529189 2.34032 0)
(-0.0336938 2.60693 0)
(0.308601 2.13173 0)
(0.261154 1.82147 0)
(0.45194 1.71089 0)
(0.788452 1.67184 0)
(1.20176 1.55162 0)
(1.61094 1.31122 0)
(1.95655 0.978239 0)
(2.21992 0.574039 0)
(2.38503 0.107508 0)
(2.43093 -0.382503 0)
(2.33062 -0.821777 0)
(2.10039 -1.15822 0)
(1.78581 -1.34054 0)
(1.43809 -1.33445 0)
(1.10916 -1.18529 0)
(0.841571 -0.998454 0)
(0.647577 -0.849271 0)
(0.505438 -0.749924 0)
(0.397091 -0.678339 0)
(0.313657 -0.621406 0)
(-0.542749 1.06209 0)
(0.545701 2.24659 0)
(0.215646 2.48771 0)
(0.424847 2.24917 0)
(0.542365 1.80409 0)
(0.711751 1.45849 0)
(1.05857 1.24129 0)
(1.5078 1.05659 0)
(1.9741 0.840825 0)
(2.38694 0.586097 0)
(2.69629 0.295968 0)
(2.86752 -0.0187821 0)
(2.88011 -0.333948 0)
(2.72938 -0.624943 0)
(2.44506 -0.856724 0)
(2.06737 -0.978942 0)
(1.65042 -0.964274 0)
(1.26091 -0.854824 0)
(0.949717 -0.735997 0)
(0.728855 -0.658012 0)
(0.569485 -0.611023 0)
(0.448947 -0.573391 0)
(0.356516 -0.538958 0)
(-0.359521 0.982153 0)
(0.452967 1.95427 0)
(0.510048 2.24034 0)
(0.875678 2.03509 0)
(1.09179 1.59751 0)
(1.31972 1.19437 0)
(1.623 0.884126 0)
(2.02066 0.637116 0)
(2.42323 0.436515 0)
(2.77531 0.263641 0)
(3.02665 0.10514 0)
(3.13357 -0.0516061 0)
(3.07371 -0.213863 0)
(2.8571 -0.374933 0)
(2.51365 -0.503295 0)
(2.08989 -0.566337 0)
(1.64468 -0.550524 0)
(1.25149 -0.495709 0)
(0.951204 -0.461832 0)
(0.742834 -0.462245 0)
(0.590015 -0.468169 0)
(0.471614 -0.464243 0)
(0.379146 -0.452676 0)
(-0.168892 0.926933 0)
(0.348132 1.56919 0)
(0.540523 1.92441 0)
(0.912325 1.79098 0)
(1.23309 1.34171 0)
(1.53494 0.869037 0)
(1.84075 0.507168 0)
(2.15448 0.251335 0)
(2.46404 0.0821155 0)
(2.7267 -0.0110584 0)
(2.89299 -0.0494247 0)
(2.92497 -0.0598599 0)
(2.80967 -0.0688278 0)
(2.55868 -0.0889714 0)
(2.20739 -0.122338 0)
(1.80176 -0.145002 0)
(1.40913 -0.15066 0)
(1.08921 -0.170131 0)
(0.861216 -0.226725 0)
(0.699717 -0.293603 0)
(0.572185 -0.339512 0)
(0.467659 -0.362022 0)
(0.382854 -0.369825 0)
(-0.0623129 0.829631 0)
(0.185913 1.18017 0)
(0.449332 1.54021 0)
(0.781938 1.43373 0)
(1.08818 1.05232 0)
(1.34963 0.595837 0)
(1.57553 0.216635 0)
(1.79067 -0.044236 0)
(1.99251 -0.182015 0)
(2.15311 -0.199516 0)
(2.23298 -0.123229 0)
(2.20686 0.00504204 0)
(2.07516 0.124429 0)
(1.85455 0.194461 0)
(1.57521 0.215508 0)
(1.28356 0.200233 0)
(1.02996 0.148183 0)
(0.850199 0.0488281 0)
(0.728167 -0.0714527 0)
(0.624535 -0.170809 0)
(0.529018 -0.235638 0)
(0.444228 -0.274117 0)
(0.37168 -0.295694 0)
(0.00533753 0.76425 0)
(0.0943587 1.06439 0)
(0.315343 1.20042 0)
(0.603208 1.02965 0)
(0.873083 0.687296 0)
(1.05646 0.330774 0)
(1.15455 0.0318455 0)
(1.21718 -0.176705 0)
(1.26288 -0.262581 0)
(1.29842 -0.218284 0)
(1.30759 -0.0743446 0)
(1.27213 0.115319 0)
(1.18661 0.288418 0)
(1.06306 0.400552 0)
(0.924449 0.43404 0)
(0.798468 0.390439 0)
(0.711056 0.281758 0)
(0.656837 0.140598 0)
(0.60484 0.00966522 0)
(0.542227 -0.0893466 0)
(0.474779 -0.157424 0)
(0.409713 -0.203132 0)
(0.350636 -0.232867 0)
(0.0300177 0.718238 0)
(0.0933111 0.976738 0)
(0.261773 0.996778 0)
(0.489506 0.824385 0)
(0.676644 0.558749 0)
(0.761873 0.276605 0)
(0.754026 0.0218475 0)
(0.705995 -0.161861 0)
(0.636061 -0.224892 0)
(0.584689 -0.158602 0)
(0.548532 -0.000704546 0)
(0.512209 0.196826 0)
(0.482621 0.371799 0)
(0.463246 0.474165 0)
(0.460536 0.486738 0)
(0.478635 0.416431 0)
(0.50666 0.292982 0)
(0.516623 0.161035 0)
(0.499573 0.0493677 0)
(0.463628 -0.0367925 0)
(0.418429 -0.101136 0)
(0.370533 -0.148271 0)
(0.32413 -0.181696 0)
(0.0304258 0.654188 0)
(0.11035 0.868186 0)
(0.249537 0.819701 0)
(0.4083 0.669494 0)
(0.521733 0.477804 0)
(0.556882 0.273041 0)
(0.512149 0.0771663 0)
(0.413208 -0.0722622 0)
(0.298504 -0.137401 0)
(0.192644 -0.0913629 0)
(0.120921 0.04113 0)
(0.0939561 0.204032 0)
(0.111063 0.342984 0)
(0.164739 0.417982 0)
(0.24522 0.414976 0)
(0.32879 0.348098 0)
(0.389326 0.251085 0)
(0.415874 0.152968 0)
(0.414179 0.0668774 0)
(0.394848 -0.00451112 0)
(0.365488 -0.0620386 0)
(0.331073 -0.1071 0)
(0.295514 -0.141212 0)
(0.0254182 0.588167 0)
(0.110397 0.758645 0)
(0.224948 0.684689 0)
(0.334813 0.555823 0)
(0.409234 0.422788 0)
(0.428788 0.286148 0)
(0.38829 0.149457 0)
(0.298322 0.0373993 0)
(0.183892 -0.0195864 0)
(0.0799329 -0.00584221 0)
(0.012027 0.0714774 0)
(-0.00458058 0.179293 0)
(0.0313062 0.272689 0)
(0.104171 0.320001 0)
(0.190565 0.314594 0)
(0.266334 0.270484 0)
(0.317268 0.206988 0)
(0.342231 0.138384 0)
(0.346623 0.0729574 0)
(0.336887 0.0146326 0)
(0.318079 -0.0353394 0)
(0.293742 -0.0767578 0)
(0.266966 -0.109862 0)
(0.0209166 0.530384 0)
(0.0964026 0.664864 0)
(0.188064 0.584059 0)
(0.267666 0.477429 0)
(0.320668 0.383861 0)
(0.336972 0.293947 0)
(0.313162 0.202962 0)
(0.254233 0.124043 0)
(0.176044 0.0784209 0)
(0.102221 0.0773084 0)
(0.054141 0.114649 0)
(0.0444478 0.171719 0)
(0.0722342 0.221836 0)
(0.123643 0.247192 0)
(0.181449 0.243752 0)
(0.231569 0.216471 0)
(0.267111 0.173842 0)
(0.287105 0.124042 0)
(0.293379 0.0733347 0)
(0.288875 0.0256113 0)
(0.276768 -0.017309 0)
(0.259618 -0.0546504 0)
(0.239634 -0.0859298 0)
(0.0175579 0.480916 0)
(0.0797368 0.587494 0)
(0.152086 0.507327 0)
(0.210999 0.41996 0)
(0.249811 0.353142 0)
(0.264416 0.292937 0)
(0.254313 0.232096 0)
(0.222462 0.177871 0)
(0.177797 0.14289 0)
(0.134115 0.133755 0)
(0.104488 0.147099 0)
(0.0968417 0.172382 0)
(0.110931 0.195644 0)
(0.139603 0.206941 0)
(0.173619 0.20197 0)
(0.205218 0.181606 0)
(0.229613 0.14991 0)
(0.244835 0.111778 0)
(0.250904 0.0714086 0)
(0.249057 0.0319037 0)
(0.241149 -0.00502263 0)
(0.228873 -0.0384902 0)
(0.213762 -0.0676615 0)
(0.0149611 0.439421 0)
(0.0653154 0.525312 0)
(0.122239 0.448308 0)
(0.166352 0.377188 0)
(0.195176 0.329443 0)
(0.207758 0.288026 0)
(0.205313 0.245361 0)
(0.189954 0.206049 0)
(0.166449 0.177925 0)
(0.142303 0.164961 0)
(0.125002 0.165538 0)
(0.119434 0.173776 0)
(0.12626 0.181964 0)
(0.142414 0.183802 0)
(0.163097 0.17599 0)
(0.183572 0.158346 0)
(0.200315 0.132804 0)
(0.211416 0.102136 0)
(0.216383 0.0690268 0)
(0.215604 0.0356933 0)
(0.210019 0.00358942 0)
(0.200757 -0.0264029 0)
(0.188824 -0.0533553 0)
(0.0129446 0.404663 0)
(0.0537878 0.475646 0)
(0.0984927 0.402859 0)
(0.132047 0.344907 0)
(0.154131 0.311 0)
(0.165193 0.281925 0)
(0.166808 0.250403 0)
(0.160469 0.219972 0)
(0.148888 0.196182 0)
(0.136267 0.181702 0)
(0.126963 0.175629 0)
(0.124026 0.174463 0)
(0.128256 0.173651 0)
(0.138293 0.169314 0)
(0.151484 0.159186 0)
(0.164914 0.142765 0)
(0.176209 0.120886 0)
(0.18389 0.0950847 0)
(0.187342 0.067059 0)
(0.186569 0.0383315 0)
(0.182012 0.0101722 0)
(0.174296 -0.0166882 0)
(0.164041 -0.0414336 0)
(0.0114727 0.375092 0)
(0.0447119 0.436011 0)
(0.0796646 0.367697 0)
(0.105587 0.319993 0)
(0.123082 0.295913 0)
(0.133216 0.275019 0)
(0.137294 0.250636 0)
(0.136187 0.225952 0)
(0.131485 0.205261 0)
(0.125687 0.19041 0)
(0.121431 0.180795 0)
(0.120625 0.174268 0)
(0.123893 0.168122 0)
(0.13057 0.159968 0)
(0.139153 0.148268 0)
(0.147876 0.132483 0)
(0.155188 0.112926 0)
(0.160001 0.0904412 0)
(0.161732 0.066104 0)
(0.160236 0.0409879 0)
(0.155653 0.0160649 0)
(0.148365 -0.00806875 0)
(0.138865 -0.0307622 0)
(0.010364 0.349637 0)
(0.0375381 0.404455 0)
(0.0647054 0.340383 0)
(0.0848797 0.300431 0)
(0.0989988 0.2831 0)
(0.108425 0.267509 0)
(0.114013 0.24783 0)
(0.116063 0.227092 0)
(0.115461 0.208741 0)
(0.113757 0.194082 0)
(0.112602 0.182696 0)
(0.113194 0.173253 0)
(0.115955 0.164112 0)
(0.12054 0.153781 0)
(0.126074 0.14122 0)
(0.131471 0.125965 0)
(0.135711 0.108091 0)
(0.138014 0.0880633 0)
(0.137904 0.0665631 0)
(0.135215 0.0443311 0)
(0.130018 0.0220465 0)
(0.122667 0.000251903 0)
(0.113634 -0.0207711 0)
(0.00937873 0.327847 0)
(0.0317981 0.379473 0)
(0.0528415 0.319339 0)
(0.0684536 0.285111 0)
(0.079846 0.272198 0)
(0.088533 0.259912 0)
(0.0948717 0.243347 0)
(0.0987205 0.225413 0)
(0.100541 0.208905 0)
(0.1013 0.194742 0)
(0.102029 0.182636 0)
(0.103456 0.171762 0)
(0.105836 0.161114 0)
(0.10896 0.149746 0)
(0.112294 0.136949 0)
(0.115156 0.122345 0)
(0.116881 0.105902 0)
(0.116945 0.0878636 0)
(0.11503 0.0686462 0)
(0.111057 0.0487245 0)
(0.105174 0.0285352 0)
(0.0977385 0.00844768 0)
(0.0893125 -0.0115522 0)
(0.00834275 0.308507 0)
(0.0269029 0.358814 0)
(0.0430527 0.302851 0)
(0.0548729 0.272994 0)
(0.0638844 0.262714 0)
(0.0716694 0.25226 0)
(0.0781036 0.237722 0)
(0.0827789 0.221846 0)
(0.0859104 0.206856 0)
(0.0880769 0.19338 0)
(0.0898814 0.181231 0)
(0.0917231 0.169911 0)
(0.0937079 0.158794 0)
(0.0956779 0.147256 0)
(0.0972928 0.134785 0)
(0.0981313 0.121061 0)
(0.0977947 0.105985 0)
(0.0959904 0.0896486 0)
(0.0925887 0.0722637 0)
(0.08765 0.0540836 0)
(0.0814276 0.0353363 0)
(0.0743022 0.0161785 0)
(0.0669721 -0.00344715 0)
(0.00723752 0.294415 0)
(0.0228795 0.344325 0)
(0.0353717 0.291848 0)
(0.0439257 0.264766 0)
(0.0508297 0.255812 0)
(0.0577668 0.246269 0)
(0.0641204 0.232959 0)
(0.0692765 0.218466 0)
(0.0733031 0.204559 0)