/*--------------------------------*- C++ -*----------------------------------*\
| =========                 |                                                 |
| \\      /  F ield         | OpenFOAM: The Open Source CFD Toolbox           |
|  \\    /   O peration     | Version:  2206                                  |
|   \\  /    A nd           | Website:  www.openfoam.com                      |
|    \\/     M anipulation  |                                                 |
\*---------------------------------------------------------------------------*/
FoamFile
{
    version     2.0;
    format      ascii;
    arch        "LSB;label=32;scalar=64";
    class       volScalarField;
    location    "0.6";
    object      alpha.water;
}
// * * * * * * * * * * * * * * * * * * * * * * * * * * * * * * * * * * * * * //

dimensions      [0 0 0 0 0 0 0];

internalField   nonuniform List<scalar> 
2268
(
0.999999
0.999999
1
1
1
1
1
1
1
1
1
1
1
1
1
1
1
0.996629
0.934553
0.919778
0.98908
0.99894
0.99894
0.999999
1
1
1
1
1
1
1
1
1
1
1
1
1
1
1
1
0.999838
0.972529
0.919938
0.949819
0.998935
0.99894
1
1
1
1
1
1
1
1
1
1
1
1
1
1
1
1
1
1
0.999997
0.952612
0.926846
0.949315
0.998896
1
1
1
1
1
1
1
1
1
1
1
1
1
1
1
1
1
1
1
0.999721
0.926846
0.930839
0.996484
1
1
1
1
1
1
1
1
1
1
1
1
1
1
1
1
1
1
1
1
0.965261
0.993739
0.999857
1
1
1
1
1
1
1
1
1
1
1
1
1
1
1
1
1
1
1
1
0.999999
1
0.999983
1
1
1
0.999997
0.999993
0.999993
0.999997
0.999999
1
1
1
1
1
1
1
1
1
1
1
1
1
1
0.999928
1
0.999957
0.992012
0.980149
0.977719
0.988471
0.99992
0.999976
0.999997
1
1
1
1
1
1
1
1
1
1
1
1
1
0.999922
0.00697913
0.00697913
0.0165364
0.70924
0.717995
0.72213
0.716729
0.781438
0.81825
0.840183
0.857243
0.873847
0.891809
0.903787
0.90929
0.910552
0.916056
0.886724
0.811572
0.0726056
0.00715202
0.08708
0.705068
0.255775
0.126515
0.137352
0.244794
0.317495
0.380795
0.433271
0.491249
0.577422
0.694338
0.818302
0.89973
0.922917
0.923832
0.923832
0.15297
0.00859495
0.320176
0.482889
0.00377131
0.00025471
0.000164707
0.000189672
0.000287951
0.00197341
0.0104174
0.0166928
0.019466
0.0277015
0.126056
0.470698
0.822481
0.923832
0.923832
0.154474
0.134636
0.31028
0.0755403
0.000405672
0.000164658
0.000164754
0.000164754
0.000176513
0.000194015
0.00086913
0.0147964
0.0272936
0.0281615
0.0279378
0.0315518
0.342708
0.923829
0.923832
0.0923197
0.268208
0.284322
0.00330538
0.000367067
0.000188861
0.000164685
0.000173054
0.000178234
0.000182021
0.000194024
0.000279006
0.011241
0.0315917
0.0301295
0.028985
0.152441
0.909744
0.923829
0.0650379
0.245297
0.167253
0.0361746
0.0306296
0.0116294
0.000842699
0.000176612
0.000177824
0.000192594
0.000223511
0.000247242
0.000657323
0.0299524
0.0297725
0.0289875
0.0836353
0.61366
0.923816
0.0603329
0.0706868
0.0924735
0.15582
0.261992
0.353628
0.295048
0.0883355
0.00029003
0.000262846
0.000247225
0.000318662
0.00054319
0.00230261
0.0186127
0.0240068
0.0797673
0.531469
0.923776
0.25999
0.156633
0.221161
0.55388
0.943806
0.937557
0.856169
0.314873
0.00845356
0.00253108
0.000934484
0.00054319
0.000714846
0.0169265
0.0116559
0.00873596
0.0661645
0.535934
0.923669
0.750982
0.603564
0.488428
0.462574
0.485753
0.569939
0.711102
0.829938
0.910723
0.970133
1
1
1
1
1
1
1
1
1
1
1
1
1
3.70217e-08
1.98546e-06
1.11137e-05
0.00465121
0.0546227
0.108618
0.140775
0.170228
0.230255
0.335962
0.477299
0.631667
0.803225
0.971186
1
1
1
1
1
1
1
1
1
2.66908e-09
3.46407e-08
-6.00018e-10
1.31948e-11
2.49636e-11
4.76837e-10
5.92558e-09
2.81226e-08
5.56287e-09
8.21042e-08
0.000281382
0.0340327
0.116163
0.263239
0.475215
0.667463
0.848623
0.994989
1
1
1
1
1
2.8333e-10
2.4685e-09
-1.33653e-10
1.30213e-11
9.66338e-12
1.10758e-11
1.03929e-10
4.25978e-10
1.02697e-09
1.4699e-09
1.48926e-09
2.89743e-09
3.98241e-08
6.3326e-07
0.0232723
0.0755775
0.144657
0.292383
0.503107
0.663834
0.859143
0.966848
0.987294
2.44152e-10
4.53866e-11
7.97672e-10
7.98789e-10
9.60444e-12
3.55231e-12
5.76838e-12
8.91628e-11
1.16238e-09
1.22726e-09
1.47827e-09
1.5932e-09
2.93237e-09
3.99815e-08
6.33552e-07
1.8199e-06
2.95574e-06
1.46512e-06
1.56046e-06
0.032043
0.120147
0.279465
0.427406
3.66885e-12
9.21068e-13
4.0202e-11
4.53787e-11
2.61616e-12
3.34441e-12
3.54644e-12
4.99112e-12
2.72814e-08
9.50903e-08
4.51301e-08
2.18317e-09
6.36711e-07
5.51061e-05
6.82262e-05
6.7583e-05
7.60975e-06
1.45264e-06
1.46512e-06
1.56046e-06
2.39553e-06
5.88147e-06
3.46908e-05
1.49473e-14
9.74941e-15
3.29321e-13
7.36213e-13
2.88918e-12
5.98527e-12
6.73107e-12
6.58084e-12
3.60876e-08
1.21781e-07
1.02063e-07
2.78301e-09
7.4632e-07
3.04578e-05
2.91125e-05
1.74929e-12
1.96475e-11
1.45217e-06
1.91571e-05
7.54525e-05
0.000114267
0.000105454
9.75218e-05
3.98703e-16
1.00499e-15
3.75635e-14
5.04913e-13
3.02852e-12
7.5161e-12
1.03596e-11
8.5616e-12
1.12267e-08
1.01681e-07
1.20103e-07
9.30206e-08
1.00775e-07
2.52949e-12
1.74929e-12
1.71646e-12
1.74929e-12
1.96475e-11
7.98515e-06
3.18997e-05
0.000270739
0.000272862
0.000251352
8.79456e-18
1.73725e-17
7.77223e-15
3.12564e-13
2.49592e-12
7.20197e-12
1.09672e-11
1.14172e-11
8.46344e-11
1.10995e-08
8.6085e-08
1.67467e-07
7.89878e-07
4.60981e-08
1.71646e-12
1.71646e-12
1.71646e-12
1.14468e-07
2.90156e-07
6.16781e-05
0.000272862
0.000273015
0.000272965
5.25374e-20
1.29146e-18
1.91849e-15
1.30024e-13
1.3247e-12
4.97343e-12
1.03862e-11
1.37539e-11
5.46387e-10
1.60059e-09
2.25597e-09
2.32272e-08
1.76957e-07
5.41453e-08
5.53846e-12
1.71646e-12
1.24669e-09
2.08826e-06
5.68456e-06
1.66897e-07
0.000133311
0.000272862
0.000273005
-2.36968e-18
1.41178e-20
4.10556e-16
4.12651e-14
4.87196e-13
2.37704e-12
7.86014e-12
8.02528e-12
3.07982e-10
2.85646e-09
3.08417e-09
5.39816e-10
2.04169e-10
2.01266e-10
2.01141e-10
1.59229e-12
4.71896e-08
2.16883e-06
3.95079e-08
4.08654e-08
0.00010622
0.000272102
0.000174623
-3.70328e-18
-7.41364e-18
6.95915e-17
1.07897e-14
1.40912e-13
8.40856e-13
4.77386e-12
7.56024e-12
2.95384e-11
3.04303e-09
3.55067e-09
3.5266e-09
3.11647e-09
1.222e-09
3.49005e-11
1.39521e-12
1.80184e-11
4.63877e-09
2.45369e-09
2.83219e-08
0.000120693
0.000270697
0.000269629
-4.04042e-18
-1.08048e-17
9.60212e-18
2.29546e-15
3.33358e-14
2.4906e-13
2.77005e-12
8.36285e-12
8.36227e-12
1.13339e-09
2.64001e-09
4.07169e-09
3.87196e-09
2.84599e-10
1.35943e-12
1.35943e-12
1.38808e-12
3.25285e-12
5.79043e-11
1.78952e-09
2.23231e-05
0.000226638
0.000269324
-3.84351e-18
-9.70875e-18
9.14274e-20
3.96859e-16
6.54645e-15
6.94263e-14
1.52346e-12
7.50263e-12
8.75088e-12
2.47186e-11
3.33104e-10
2.89118e-09
7.63194e-10
6.53939e-12
1.55211e-12
1.38932e-12
2.51714e-12
2.53805e-12
3.82162e-12
3.11722e-11
6.10602e-10
1.13192e-08
2.61835e-05
-3.27714e-18
-7.49971e-18
-2.87816e-18
5.29996e-17
1.06494e-15
1.78101e-14
5.90585e-13
4.09774e-12
6.93199e-12
4.56709e-12
3.441e-11
2.11736e-10
1.99701e-12
1.34447e-12
1.34306e-12
7.35406e-13
2.71605e-12
5.8685e-12
7.36726e-12
8.05139e-12
3.27576e-11
2.41953e-09
4.70316e-09
-2.50299e-18
-5.10901e-18
-5.51222e-18
4.95924e-18
1.40358e-16
4.10888e-15
1.59167e-13
1.40636e-12
3.29098e-12
3.3372e-12
1.24957e-12
7.05834e-13
4.80333e-13
4.65939e-13
3.67233e-13
8.45503e-14
5.63183e-13
4.54271e-12
1.15416e-11
1.75598e-11
6.61755e-11
5.46455e-10
7.52834e-10
-1.70091e-18
-3.02267e-18
-4.3662e-18
5.40045e-20
1.44323e-17
8.57264e-16
3.36722e-14
3.19608e-13
9.06835e-13
1.27079e-12
1.18943e-12
6.69752e-13
3.16294e-13
1.25094e-13
3.64068e-14
9.9945e-15
1.18284e-14
2.70738e-13
2.85293e-12
1.4429e-11
6.56141e-11
3.11387e-10
5.85184e-10
-1.01915e-18
-1.54004e-18
-2.62767e-18
-2.55434e-19
1.10377e-18
1.57017e-16
5.69814e-15
5.2459e-14
1.7923e-13
3.67178e-13
5.60115e-13
2.85079e-13
6.92489e-14
1.02093e-14
1.78354e-15
9.6446e-16
1.92672e-15
3.09093e-14
4.87579e-13
5.05729e-12
2.96314e-11
1.34513e-10
4.93133e-10
-5.32635e-19
-6.6349e-19
-1.30353e-18
-2.75316e-19
7.67357e-20
2.37615e-17
8.08648e-16
7.6871e-15
3.18433e-14
6.7538e-14
8.63099e-14
5.27996e-14
1.51464e-14
2.08306e-15
1.5636e-16
6.12418e-17
3.68653e-16
5.99686e-15
1.21973e-13
2.65868e-12
2.41665e-11
9.13532e-11
2.29748e-10
-2.39888e-19
-2.35843e-19
-5.26131e-19
-1.36374e-19
6.22431e-21
2.90202e-18
1.04371e-16
1.10115e-15
4.97596e-15
9.73821e-15
1.03227e-14
7.30627e-15
2.73018e-15
4.4043e-16
2.22379e-17
1.40832e-18
6.5231e-17
1.48037e-15
2.92696e-14
8.5969e-13
1.33231e-11
6.25614e-11
1.31103e-10
-9.1962e-20
-6.6955e-20
-1.68193e-19
-4.61023e-20
4.66679e-22
2.8334e-19
1.25732e-17
1.48309e-16
6.58681e-16
1.2622e-15
1.3356e-15
9.31293e-16
3.75832e-16
6.71901e-17
1.98685e-18
1.46932e-20
8.56915e-18
4.35899e-16
8.63741e-15
1.45745e-13
2.64543e-12
2.10939e-11
6.39984e-11
-2.96743e-20
-1.45618e-20
-4.11881e-20
-1.14808e-20
1.22048e-23
1.99881e-20
1.27836e-18
1.7562e-17
7.4032e-17
1.34519e-16
1.44763e-16
9.83764e-17
3.47048e-17
2.40416e-18
-1.73893e-18
-1.44247e-18
8.52162e-19
1.04568e-16
2.85122e-15
3.44162e-14
3.05125e-13
3.00999e-12
2.01782e-11
-7.99347e-21
-2.29842e-21
-7.48039e-21
-2.11988e-21
-3.31256e-23
8.41809e-22
9.14149e-20
1.51572e-18
6.21867e-18
1.0733e-17
1.19182e-17
7.95087e-18
1.2287e-18
-9.90711e-19
-2.96531e-18
-2.20683e-18
4.58736e-20
1.76373e-17
7.4998e-16
1.06663e-14
7.60185e-14
4.95788e-13
4.58678e-12
-1.79138e-21
-2.44583e-22
-9.80138e-22
-2.86286e-22
-1.45582e-23
1.70963e-23
3.58033e-21
7.43178e-20
3.20622e-19
5.57263e-19
6.09067e-19
1.22374e-19
-2.57677e-19
-1.60433e-18
-2.42106e-18
-1.68953e-18
0
2.31808e-18
1.56747e-16
2.91944e-15
2.45461e-14
1.46118e-13
1.11365e-12
-3.35025e-22
-1.58511e-23
-8.92565e-23
-2.76601e-23
-2.09444e-24
8.42196e-26
5.13086e-23
1.65724e-21
7.79874e-21
1.04085e-20
6.28632e-22
-7.1622e-20
-4.21153e-19
-9.93074e-19
-1.22317e-18
-8.31942e-19
-1.49284e-19
3.53439e-19
3.05082e-17
7.1506e-16
7.10953e-15
4.08517e-14
2.4505e-13
-5.2839e-23
-7.53521e-25
-6.11885e-24
-2.04204e-24
-2.34619e-25
-2.97103e-25
1.24028e-25
5.55797e-24
1.42132e-23
0
-8.91546e-21
-5.88402e-20
-1.96451e-19
-3.80603e-19
-4.28815e-19
-2.87664e-19
-7.62709e-20
5.65079e-20
5.60302e-18
1.62344e-16
1.82591e-15
9.30964e-15
3.41963e-14
-7.13179e-24
-3.09234e-26
-3.39333e-25
-1.24028e-25
-4.09962e-26
-2.8043e-25
-1.76212e-24
-9.11981e-24
-7.32529e-23
-6.3552e-22
-4.42782e-21
-1.96493e-20
-5.63715e-20
-1.00803e-19
-1.089e-19
-7.2488e-20
-2.14703e-20
9.35003e-21
9.3281e-19
3.60887e-17
4.84983e-16
1.83142e-15
1.60182e-15
-8.36508e-25
-1.44354e-27
-1.602e-26
-6.85798e-27
-1.01546e-26
-1.03619e-25
-8.59101e-25
-5.92352e-24
-3.83818e-23
-2.32644e-22
-1.178e-21
-4.45825e-21
-1.17324e-20
-1.99913e-20
-2.09726e-20
-1.38175e-20
-4.04772e-21
1.70757e-21
1.81408e-19
9.27985e-18
1.17012e-16
3.47167e-16
4.59599e-17
-8.64474e-26
-1.08025e-28
-6.69196e-28
-4.18527e-28
-2.11973e-27
-2.36427e-26
-2.08729e-25
-1.49526e-24
-9.17264e-24
-4.90252e-23
-2.18028e-22
-7.53725e-22
-1.87545e-21
-3.09112e-21
-3.15601e-21
-2.05133e-21
-5.49122e-22
3.01796e-22
3.29878e-20
2.07584e-18
2.40456e-17
6.68694e-17
9.95228e-18
-7.96058e-27
-1.13007e-29
-2.56797e-29
-3.26075e-29
-3.16937e-28
-3.58489e-27
-3.20749e-26
-2.31642e-25
-1.39254e-24
-7.07351e-24
-2.96945e-23
-9.80349e-23
-2.36642e-22
-3.82178e-22
-3.80802e-22
-2.43869e-22
-5.63485e-23
4.35563e-23
4.11081e-21
3.17211e-19
4.13212e-18
1.30854e-17
3.34366e-18
-6.58788e-28
-1.17857e-30
-9.45342e-31
-2.76944e-30
-3.44415e-29
-3.90129e-28
-3.50398e-27
-2.54363e-26
-1.52303e-25
-7.60458e-25
-3.12374e-24
-1.01295e-23
-2.41633e-23
-3.86008e-23
-3.76962e-23
-2.37861e-23
-4.52835e-24
4.21128e-24
3.26942e-22
3.37138e-20
6.15014e-19
2.47878e-18
1.55358e-18
-4.92979e-29
-1.09882e-31
-3.48976e-32
-2.13829e-31
-2.88962e-30
-3.27722e-29
-2.9524e-28
-2.15826e-27
-1.2985e-26
-6.48051e-26
-2.65422e-25
-8.58587e-25
-2.04472e-24
-3.24699e-24
-3.12471e-24
-1.94423e-24
-2.87323e-25
2.80284e-25
1.81783e-23
2.64611e-21
7.84943e-20
4.24103e-19
2.99744e-19
-3.34935e-30
-9.03795e-33
-1.32671e-33
-1.41708e-32
-1.97207e-31
-2.24367e-30
-2.03011e-29
-1.49653e-28
-9.08513e-28
-4.56751e-27
-1.88251e-26
-6.12407e-26
-1.46371e-25
-2.31586e-25
-2.20503e-25
-1.35295e-25
-1.45216e-26
1.61635e-26
9.16781e-25
1.65309e-22
8.01461e-21
5.64636e-20
2.01909e-20
-2.07082e-31
-6.56757e-34
-5.17927e-35
-8.08232e-34
-1.13684e-32
-1.30005e-31
-1.18225e-30
-8.79619e-30
-5.39849e-29
-2.74331e-28
-1.14277e-27
-3.75244e-27
-9.01892e-27
-1.4216e-26
-1.34224e-26
-8.10621e-27
-6.03996e-28
9.77724e-28
5.36006e-26
8.74451e-24
6.08992e-22
5.25001e-21
1.21074e-21
-1.16638e-32
-4.24583e-35
-2.02942e-36
-4.0382e-35
-5.70133e-34
-6.55939e-33
-5.99616e-32
-4.50289e-31
-2.79446e-30
-1.43682e-29
-6.05712e-29
-2.00896e-28
-4.85315e-28
-7.61014e-28
-7.12258e-28
-4.21989e-28
-2.18572e-29
5.77879e-29
3.16701e-27
3.436e-25
3.0664e-23
3.33307e-22
7.2352e-23
-5.98628e-34
-2.44964e-36
-7.80094e-38
-1.80127e-36
-2.54619e-35
-2.9473e-34
-2.70768e-33
-2.05077e-32
-1.28581e-31
-6.68647e-31
-2.85105e-30
-9.53928e-30
-2.3114e-29
-3.59564e-29
-3.32956e-29
-1.92467e-29
-7.09306e-31
2.78401e-30
1.49674e-28
1.02276e-26
1.04619e-24
1.56349e-23
3.50514e-24
-2.79998e-35
-1.26976e-37
-2.90007e-39
-7.2972e-38
-1.03217e-36
-1.20093e-35
-1.10834e-34
-8.45566e-34
-5.34932e-33
-2.80929e-32
-1.20952e-31
-4.07388e-31
-9.87271e-31
-1.51858e-30
-1.38681e-30
-7.77013e-31
-2.04141e-32
1.02454e-31
5.07161e-30
3.01135e-28
3.16979e-26
6.71209e-25
2.48036e-25
-1.19398e-36
-5.88948e-39
-1.03566e-40
-2.72389e-39
-3.85769e-38
-4.50407e-37
-4.175e-36
-3.20268e-35
-2.04104e-34
-1.08067e-33
-4.68854e-33
-1.58574e-32
-3.83153e-32
-5.80735e-32
-5.21149e-32
-2.81092e-32
-5.19844e-34
2.55871e-33
1.48717e-31
9.90548e-30
6.11646e-28
2.09792e-26
1.18347e-25
-4.65271e-38
-2.43466e-40
-3.53878e-42
-9.4809e-41
-1.34599e-39
-1.57353e-38
-1.46485e-37
-1.12791e-36
-7.23092e-36
-3.85231e-35
-1.68085e-34
-5.69343e-34
-1.36761e-33
-2.03672e-33
-1.79018e-33
-9.23414e-34
-1.20444e-35
3.87442e-35
2.95164e-33
2.08841e-31
1.08034e-29
6.22363e-28
2.27359e-26
-1.66661e-39
-9.01107e-42
-1.15462e-43
-3.10598e-42
-4.42441e-41
-5.16776e-40
-4.82785e-39
-3.729e-38
-2.40111e-37
-1.2852e-36
-5.62826e-36
-1.90529e-35
-4.53852e-35
-6.62451e-35
-5.68828e-35
-2.79189e-35
-2.64103e-37
2.34354e-37
1.98755e-35
1.46762e-33
1.08426e-31
9.7379e-30
5.5908e-28
-5.53858e-41
-3.00943e-43
-3.58801e-45
-9.64417e-44
-1.37907e-42
-1.60656e-41
-1.50536e-40
-1.16524e-39
-7.52924e-39
-4.04348e-38
-1.77459e-37
-5.99315e-37
-1.413e-36
-2.01772e-36
-1.68984e-36
-7.85964e-37
-5.5911e-39
1.46359e-39
9.28351e-38
5.61041e-36
3.76475e-34
3.09833e-32
1.0611e-30
-1.72767e-42
-8.96995e-45
-1.05472e-46
-2.85298e-45
-4.09607e-44
-4.75392e-43
-4.46478e-42
-3.46094e-41
-2.24253e-40
-1.20739e-39
-5.30434e-39
-1.78448e-38
-4.15966e-38
-5.80495e-38
-4.73697e-38
-2.08125e-38
-1.09729e-40
7.40719e-42
4.07595e-40
2.11987e-38
1.00856e-36
4.56059e-35
1.43938e-33
0.999895
0.999373
0.999411
0.999726
0.999986
0.999984
0.999983
0.999981
0.999992
0.999984
0.999981
0.999962
0.997613
0.999608
0.999883
0.999077
0.536616
0.601239
0.873748
0.648427
0.000568725
0.0659814
0.254084
0.401636
9.8453e-05
0.000115681
0.0671422
0.403571
0.000116514
0.000124581
0.0560317
0.355662
0.00023824
0.000129569
0.000138347
0.11556
0.000260652
0.00011655
0.000123632
0.0888893
0.000114769
0.000114769
8.9272e-05
0.0235292
0.000267451
0.000142894
5.55054e-05
0.00114875
0.000230031
3.11809e-05
9.50745e-06
3.62576e-05
3.21294e-05
1.49861e-07
1.49428e-06
1.00363e-05
1.90779e-08
2.19737e-08
1.49858e-07
1.46047e-06
1.65957e-09
4.74009e-09
2.19786e-08
2.66456e-07
9.16371e-10
2.43014e-09
4.81181e-09
4.18295e-08
1.36945e-09
2.56334e-09
2.49651e-09
6.69442e-09
6.16003e-10
1.23924e-09
1.75063e-09
7.9277e-09
1.95158e-10
2.45224e-10
8.72789e-10
1.87643e-08
1.18639e-10
1.76639e-10
4.28454e-10
1.43487e-08
7.83258e-11
1.6714e-10
3.13463e-10
3.1297e-09
3.73364e-11
1.17843e-10
2.02796e-10
2.1828e-10
1.15674e-11
4.86945e-11
1.06296e-10
1.83463e-10
3.26027e-12
1.85465e-11
7.20629e-11
1.65648e-10
1.06981e-12
9.7765e-12
5.81286e-11
1.40187e-10
3.90679e-13
4.75217e-12
3.80622e-11
9.76152e-11
1.58031e-13
2.18e-12
1.68449e-11
3.28658e-11
6.75579e-14
1.09349e-12
5.94555e-12
3.49572e-12
3.8023e-14
4.70159e-13
9.53852e-13
2.19274e-13
1.76066e-14
1.60365e-13
1.6219e-13
1.72393e-13
4.18885e-15
4.50596e-14
3.64925e-13
1.86453e-13
3.91382e-16
9.66189e-15
3.43892e-13
5.68044e-12
1.50025e-17
1.43986e-15
1.476e-13
4.90208e-12
5.97559e-19
1.73236e-16
4.03447e-14
1.08878e-12
3.5797e-20
9.78209e-18
5.18716e-15
1.38209e-13
1.74398e-21
1.31875e-19
5.91709e-16
1.83e-14
5.63846e-23
1.46434e-21
9.49257e-17
2.29366e-15
7.41092e-25
1.13334e-22
1.01493e-17
2.11986e-16
1.34326e-26
3.42917e-24
5.72118e-19
2.91373e-17
3.15006e-29
6.74976e-25
1.7656e-20
3.94042e-19
8.16354e-32
4.76721e-27
1.68548e-24
4.71279e-23
0.981745
0.923703
0.938317
0.954172
0.954172
0.928187
0.91846
0.914818
0.80916
0.292449
0.00317571
0.001159
0.0203576
0.0338917
0.0158192
0.00567855
0.0188406
0.56152
0.923418
0.999962
0.999098
0.974012
0.871963
0.515779
0.0909843
0.0028172
0.0400845
0.503345
0.486358
0.120086
0.00914587
0.0474431
0.0308326
0.00459494
0.00513717
0.00567926
0.731865
0.922863
0.978713
0.71965
0.153714
0.000915116
0.00099968
0.00182956
0.00246962
0.00280744
0.0916904
0.396387
0.133857
0.0724581
0.0422025
0.0100352
0.00353081
0.00402562
0.0880584
0.865076
0.920742
0.33998
0.000952871
0.000916721
0.000865489
0.000915153
0.00262551
0.00277238
0.00290829
0.0684779
0.250283
0.146251
0.0685005
0.0152143
0.0034489
0.00341224
0.00342797
0.292966
0.900849
0.918594
0.000952952
0.000897833
0.0013569
0.000851523
0.00114992
0.0035094
0.00842813
0.0309739
0.132159
0.122574
0.0286757
0.00398148
0.0034489
0.00341174
0.00342797
0.00340194
0.189839
0.842929
0.917346
0.00087499
0.00085279
0.000851958
0.000852242
0.000852125
0.00235037
0.0343829
0.0397923
0.0351461
0.00923906
0.00808675
0.00594349
0.00398147
0.00344889
0.00342791
0.00342797
0.0757913
0.753234
0.914915
0.0172581
0.000865638
0.00085279
0.00085173
0.000895649
0.00126469
0.00952355
0.0205786
0.0212466
0.0265088
0.0964526
0.203977
0.298864
0.353486
0.291821
0.042975
0.0604784
0.695235
0.910704
0.101436
0.000954992
0.000865638
0.000896412
0.0012409
0.00247212
0.00606451
0.0239014
0.223858
0.479526
0.685932
0.843584
0.838486
0.836689
0.822535
0.443145
0.178075
0.675866
0.904441
0.283126
0.0404748
0.00095499
0.00118016
0.00210332
0.00494458
0.0257259
0.381301
0.717121
0.857312
0.857362
0.857773
0.846931
0.58265
0.419335
0.481058
0.280034
0.437875
0.902147
0.283126
0.0785755
0.0012259
0.00152541
0.00242965
0.00592479
0.221846
0.724382
0.837027
0.855693
0.857774
0.857362
0.569701
0.0384508
0.0389191
0.040298
0.0841937
0.563323
0.925748
0.217754
0.135263
0.00152541
0.00242982
0.00345548
0.0653382
0.519244
0.705565
0.658081
0.647673
0.855693
0.851123
0.653731
0.149111
0.0384103
0.0407344
0.195417
0.829708
0.92577
0.0786396
0.155635
0.080163
0.00345575
0.0265143
0.177812
0.645789
0.584993
0.0915428
0.112594
0.758311
0.857179
0.870562
0.78804
0.194494
0.108589
0.466003
0.92577
0.92577
0.00642596
0.0776339
0.0843628
0.0557413
0.085721
0.466344
0.645789
0.105548
0.000322955
0.00153021
0.148311
0.601663
0.882628
0.890748
0.898114
0.80206
0.802923
0.925467
0.92577
8.32166e-05
0.00164513
0.0255225
0.0708634
0.218356
0.434879
0.179156
0.000295976
4.81317e-05
0.000203216
0.00103411
0.00504866
0.415955
0.877854
0.914224
0.919479
0.923417
0.925208
0.914358
1.68447e-05
0.000190959
0.0015973
0.0562245
0.115119
0.0585838
0.000295976
3.70988e-05
1.75309e-05
2.2359e-05
5.44166e-05
0.000120376
0.000743281
0.231803
0.715069
0.839913
0.87963
0.92091
0.901452
3.39112e-06
4.16434e-05
0.00158673
0.00740133
0.00292616
0.000943544
3.70988e-05
1.19586e-05
1.55947e-05
1.75285e-05
1.95333e-05
2.48258e-05
4.50501e-05
4.04997e-06
0.000304506
0.111849
0.233838
0.480091
0.821707
6.01467e-07
1.13147e-05
0.000170304
0.000211377
0.000315224
0.000147479
1.30427e-05
9.26505e-06
1.61337e-05
2.28461e-05
2.30403e-05
2.55443e-05
2.68631e-05
4.41702e-05
0.000104634
0.000318511
0.00122997
0.0512217
0.473656
7.70858e-08
8.62232e-07
5.92651e-06
2.87086e-05
4.6431e-05
4.05777e-05
2.80453e-05
3.13428e-06
1.60723e-05
5.64411e-05
2.78717e-05
3.7102e-05
3.69108e-05
4.33303e-05
6.8197e-05
0.000136787
0.00040113
0.0387618
0.297183
1.59764e-08
9.38359e-08
5.86004e-07
3.00465e-06
5.28824e-06
4.31541e-06
1.32945e-05
1.63245e-06
1.93669e-07
5.21815e-05
5.77804e-05
2.65679e-05
1.75597e-05
0.000175647
0.000301105
0.000289799
0.000296027
0.0280401
0.265447
3.56842e-08
3.98987e-08
5.94189e-08
2.42711e-07
4.41222e-07
3.47506e-07
2.24491e-07
1.19602e-07
5.19035e-08
2.3594e-05
5.77804e-05
2.64031e-05
1.36705e-06
0.000224223
0.000374311
0.000233463
0.000209556
0.00816615
0.132293
3.55974e-08
3.45e-08
1.62674e-08
1.65129e-08
2.63564e-08
2.30619e-08
1.92027e-08
3.07863e-08
3.39998e-08
5.19051e-08
1.71641e-05
1.33764e-05
4.85126e-07
1.14438e-05
0.000221678
1.17354e-07
8.23473e-06
0.00536651
0.023441
1.13325e-08
1.57177e-08
1.05656e-08
2.14004e-09
2.42586e-09
3.67397e-09
7.87156e-09
2.55334e-08
3.32414e-08
3.39998e-08
3.75399e-08
3.15165e-07
2.21044e-07
8.81682e-08
9.46488e-08
1.01102e-07
0.00228601
0.00959928
0.0473151
2.85457e-10
9.04016e-10
1.74312e-09
1.4226e-09
1.37936e-09
2.6819e-09
6.54559e-09
2.8358e-08
3.53879e-08
3.5007e-08
3.54955e-08
5.00237e-08
8.09292e-08
8.47929e-08
8.81682e-08
9.46488e-08
0.0131104
0.012747
0.105173
2.44098e-10
8.5748e-10
1.70555e-09
1.40138e-09
1.34269e-09
1.37936e-09
5.00089e-09
1.85648e-08
3.18505e-08
1.28651e-07
1.92251e-07
1.67559e-07
9.41698e-08
8.88612e-08
9.67785e-08
9.97825e-08
0.0151291
0.0128287
0.105375
2.1847e-10
6.63977e-10
9.17711e-10
8.68553e-10
8.74842e-10
4.27782e-07
6.35442e-06
1.13196e-05
4.68631e-06
2.1971e-06
1.04789e-06
1.1174e-07
9.76888e-08
9.7865e-08
1.01541e-07
1.04058e-07
0.0151511
0.0128228
0.0729644
1.60815e-10
2.07654e-10
2.10122e-10
2.15616e-10
4.28952e-06
2.68504e-05
0.000123482
0.000165056
0.000114812
1.43147e-05
3.2718e-07
1.30052e-07
1.07149e-07
1.01659e-07
1.04058e-07
0.000628393
0.0151719
0.0130112
0.0146959
9.53249e-11
2.75686e-12
2.02896e-06
2.00792e-05
2.46775e-05
4.81115e-05
0.000139492
0.000167899
0.000167916
0.000140652
1.15553e-05
2.21303e-07
1.15275e-07
1.06602e-07
1.06408e-07
0.00747279
0.0151645
0.0216598
0.0971371
1.50463e-11
1.79797e-12
3.5006e-05
3.50821e-05
9.09316e-06
9.61138e-08
1.10506e-07
0.000110042
0.000168399
0.000168329
7.09356e-05
3.0804e-07
1.18978e-07
1.0942e-07
1.13409e-07
0.00936186
0.00705498
0.0447517
0.102385
5.62666e-13
6.91553e-13
2.00089e-05
5.53973e-06
4.08e-08
8.36543e-08
9.61138e-08
6.1628e-05
0.000168329
0.000168391
4.96544e-05
1.59539e-07
1.09419e-07
1.081e-07
1.0816e-07
0.00386366
0.00488499
0.0640232
0.102385
5.05175e-13
1.23861e-06
9.55891e-10
7.2826e-11
1.78723e-09
4.92072e-08
8.36543e-08
7.29456e-05
0.000163773
0.000102007
7.15559e-06
1.87248e-07
1.44351e-07
1.08457e-07
9.84752e-08
0.00123942
0.0193471
0.0716471
0.102385
1.41941e-08
2.06587e-08
9.48239e-11
3.18927e-11
6.57179e-07
8.36543e-08
2.46006e-06
3.00625e-05
7.17035e-05
1.99653e-05
3.25478e-06
2.6828e-07
1.69369e-07
5.57261e-07
7.90656e-05
0.0151412
0.0402566
0.0377481
0.102352
3.9726e-09
1.33154e-09
1.61261e-11
3.2126e-11
3.74584e-06
2.05898e-06
1.39838e-06
3.7549e-06
5.53141e-06
2.61647e-05
1.61655e-06
4.63733e-07
2.48886e-06
2.591e-05
0.00680945
0.0207191
0.0164706
0.0120286
0.102174
6.25498e-12
8.88941e-13
8.03102e-13
8.88941e-13
3.6473e-06
8.53998e-06
1.88186e-06
1.8745e-05
5.42881e-05
3.12041e-05
2.44425e-06
3.57158e-06
2.44772e-05
0.00368781
0.00804276
3.77824e-05
0.000297169
0.00663592
0.100636
1.0773e-11
9.17693e-12
4.47448e-13
6.6239e-13
1.08791e-06
9.40565e-06
2.18729e-05
5.77976e-05
5.73329e-05
2.6331e-05
4.51287e-06
1.2607e-05
0.00175767
0.00447704
0.00268375
1.95132e-05
1.87906e-05
0.00170312
0.0176654
2.73884e-12
1.14446e-12
2.44136e-13
1.59213e-08
2.12645e-08
9.28507e-06
5.36331e-05
5.78731e-05
5.77976e-05
2.48012e-05
1.1558e-05
0.000196643
0.00177965
0.00164849
1.98277e-05
1.86998e-05
1.87232e-05
1.86498e-05
2.54507e-05
1.05703e-13
3.71628e-14
3.62781e-14
1.7428e-12
1.58696e-09
1.93629e-05
5.79304e-05
5.79235e-05
5.78731e-05
3.30189e-05
8.03213e-06
0.000199955
0.00119494
3.83233e-05
3.45839e-05
3.4704e-05
1.89682e-05
1.87232e-05
0.0827044
1.42235e-14
8.86504e-15
2.30624e-14
3.99407e-11
7.66848e-09
1.89549e-05
5.79235e-05
5.7936e-05
5.78887e-05
3.15622e-05
7.30007e-06
0.000152911
0.000175986
0.000138121
0.000129512
3.55339e-05
1.5944e-05
1.87232e-05
0.169633
3.19382e-15
-1.19018e-14
4.80122e-13
1.16684e-10
7.26776e-09
8.11003e-06
5.19512e-05
5.78887e-05
5.77919e-05
9.53496e-06
1.44548e-06
2.53017e-05
7.42988e-07
2.61866e-06
2.0673e-05
5.96277e-06
5.13222e-06
0.00118395
0.18304
2.15927e-16
6.14394e-15
1.01152e-12
3.28309e-10
6.20356e-07
7.02316e-06
1.61697e-05
3.43958e-05
2.13592e-05
9.40342e-08
4.67719e-08
1.18866e-07
5.20548e-07
2.39854e-06
2.31835e-08
1.00499e-08
1.91253e-10
0.00397057
0.18304
2.34386e-16
1.18602e-14
1.28385e-12
9.21611e-11
3.9208e-07
2.50849e-06
2.01599e-06
8.52975e-07
9.40342e-08
4.18362e-08
3.89134e-08
4.67719e-08
2.85009e-06
2.32335e-06
1.28435e-07
1.91253e-10
9.33064e-12
9.0765e-12
0.177919
3.01905e-18
9.75323e-16
1.07183e-14
9.87063e-11
3.02059e-09
6.99774e-10
3.07303e-08
6.57621e-07
6.26276e-08
3.89134e-08
3.88774e-08
2.57199e-06
7.32376e-06
7.32376e-06
7.44083e-07
1.46663e-11
2.67085e-13
9.27113e-15
0.0447762
1.21177e-21
2.47198e-18
9.18876e-16
1.30692e-13
1.0738e-12
5.64983e-11
7.58352e-10
6.19057e-08
2.32644e-07
7.66251e-08
3.88774e-08
4.07019e-06
4.35485e-06
1.46737e-08
-3.5789e-13
-2.55491e-14
-3.8323e-30
-2.02187e-33
6.57599e-15
)
;

boundaryField
{
    leftWall
    {
        type            zeroGradient;
    }
    rightWall
    {
        type            zeroGradient;
    }
    lowerWall
    {
        type            zeroGradient;
    }
    atmosphere
    {
        type            inletOutlet;
        inletValue      uniform 0;
        value           nonuniform List<scalar> 
46
(
-1.72767e-42
-8.96995e-45
-1.05472e-46
-2.85298e-45
-4.09607e-44
-4.75392e-43
-4.46478e-42
-3.46094e-41
-2.24253e-40
-1.20739e-39
-5.30434e-39
-1.78448e-38
-4.15966e-38
-5.80495e-38
-4.73697e-38
-2.08125e-38
-1.09729e-40
7.40719e-42
4.07595e-40
2.11987e-38
1.00856e-36
4.56059e-35
1.43938e-33
8.16354e-32
4.76721e-27
1.68548e-24
0
1.21177e-21
2.47198e-18
9.18876e-16
1.30692e-13
1.0738e-12
5.64983e-11
7.58352e-10
6.19057e-08
2.32644e-07
7.66251e-08
3.88774e-08
4.07019e-06
0
0
0
0
0
0
6.57599e-15
)
;
    }
    defaultFaces
    {
        type            empty;
    }
}


// ************************************************************************* //
