/*--------------------------------*- C++ -*----------------------------------*\
| =========                 |                                                 |
| \\      /  F ield         | OpenFOAM: The Open Source CFD Toolbox           |
|  \\    /   O peration     | Version:  2206                                  |
|   \\  /    A nd           | Website:  www.openfoam.com                      |
|    \\/     M anipulation  |                                                 |
\*---------------------------------------------------------------------------*/
FoamFile
{
    version     2.0;
    format      ascii;
    arch        "LSB;label=32;scalar=64";
    class       surfaceScalarField;
    location    "0.6";
    object      alphaPhi0.water;
}
// * * * * * * * * * * * * * * * * * * * * * * * * * * * * * * * * * * * * * //

dimensions      [0 3 -1 0 0 0 0];

oriented        oriented;

internalField   nonuniform List<scalar> 
4432
(
-3.2409e-06
3.2409e-06
-5.83385e-06
2.59295e-06
-6.22678e-06
3.92923e-07
-5.18424e-06
-1.04254e-06
-2.80631e-06
-2.37793e-06
8.37264e-07
-3.64358e-06
4.90864e-06
-4.07138e-06
8.34293e-06
-3.43429e-06
1.05205e-05
-2.17758e-06
1.1404e-05
-8.83475e-07
1.11814e-05
2.22614e-07
1.00525e-05
1.12888e-06
8.27511e-06
1.77738e-06
5.95013e-06
2.32499e-06
2.96906e-06
2.98106e-06
-8.72477e-07
3.84154e-06
-5.70034e-06
4.82787e-06
-9.78419e-06
4.32091e-06
-1.23702e-05
3.17761e-06
-1.8295e-05
5.33363e-06
-2.36027e-05
4.55247e-06
-1.68539e-05
-6.74871e-06
-1.68537e-05
-3.77045e-06
7.01135e-06
-5.58971e-06
4.41222e-06
-5.5977e-06
4.00912e-07
-4.72154e-06
-1.91871e-06
-2.62299e-06
-4.47648e-06
8.70609e-07
-7.13718e-06
4.97918e-06
-8.17995e-06
8.47209e-06
-6.92719e-06
1.06619e-05
-4.36738e-06
1.15672e-05
-1.78879e-06
1.15834e-05
2.06367e-07
1.10991e-05
1.61325e-06
1.02603e-05
2.6162e-06
9.15817e-06
3.42709e-06
7.75161e-06
4.38762e-06
5.70226e-06
5.89089e-06
2.39607e-06
8.13406e-06
-2.98909e-06
9.72449e-06
-9.4118e-06
1.04918e-05
-1.55017e-05
1.08316e-05
-1.78058e-05
6.08798e-06
-1.18991e-05
-1.26552e-05
-2.87526e-05
-2.85482e-06
9.86618e-06
-4.18174e-06
5.73914e-06
-4.38606e-06
6.05229e-07
-4.05412e-06
-2.25065e-06
-2.52286e-06
-6.00774e-06
6.66292e-07
-1.03263e-05
4.72001e-06
-1.22337e-05
8.2321e-06
-1.04393e-05
1.03816e-05
-6.51685e-06
1.11816e-05
-2.5888e-06
1.10323e-05
3.5568e-07
1.03087e-05
2.33683e-06
9.32085e-06
3.60403e-06
8.28406e-06
4.46389e-06
7.39045e-06
5.28123e-06
6.79352e-06
6.48781e-06
6.32339e-06
8.6042e-06
4.4847e-06
1.15632e-05
7.59614e-07
1.42171e-05
-3.94849e-06
1.66525e-05
-6.69867e-06
8.52645e-06
-4.51386e-06
-1.45841e-05
-3.3261e-05
-1.49412e-06
1.13603e-05
-2.09293e-06
6.33794e-06
-2.37635e-06
8.88649e-07
-2.30527e-06
-2.32173e-06
-1.03488e-06
-7.27813e-06
1.64921e-06
-1.30104e-05
5.11958e-06
-1.5704e-05
8.12254e-06
-1.34422e-05
9.94338e-06
-8.33769e-06
1.05732e-05
-3.21857e-06
1.03318e-05
5.97039e-07
9.57415e-06
3.09448e-06
8.57921e-06
4.59897e-06
7.55153e-06
5.49158e-06
6.64846e-06
6.18429e-06
6.10819e-06
7.02809e-06
6.39311e-06
8.31928e-06
7.23418e-06
1.07221e-05
7.7806e-06
1.36707e-05
7.69503e-06
1.67704e-05
5.44304e-06
1.04667e-05
3.41366e-06
-1.24296e-05
-2.98199e-05
3.28848e-07
1.10315e-05
1.03093e-06
5.63587e-06
1.29205e-06
6.27529e-07
2.00891e-06
-3.03858e-06
3.57647e-06
-8.84568e-06
5.65316e-06
-1.50871e-05
7.58993e-06
-1.76408e-05
8.99385e-06
-1.48462e-05
9.71914e-06
-9.06299e-06
9.83489e-06
-3.33432e-06
9.45582e-06
9.76104e-07
8.72685e-06
3.82345e-06
7.84895e-06
5.47687e-06
7.00333e-06
6.3372e-06
6.27021e-06
6.9174e-06
5.76799e-06
7.53032e-06
5.87044e-06
8.21683e-06
7.12545e-06
9.46709e-06
9.70612e-06
1.109e-05
1.29244e-05
1.35521e-05
1.3008e-05
1.05812e-05
8.443e-06
-8.01675e-06
-2.13896e-05
2.86263e-06
8.16883e-06
5.44766e-06
3.05083e-06
7.37429e-06
-1.2991e-06
9.69369e-06
-5.35798e-06
1.19229e-05
-1.10749e-05
1.28119e-05
-1.59762e-05
1.23181e-05
-1.7147e-05
1.12593e-05
-1.37874e-05
1.01828e-05
-7.98646e-06
9.28775e-06
-2.43925e-06
8.54668e-06
1.71717e-06
7.79542e-06
4.57471e-06
7.05517e-06
6.21712e-06
6.44174e-06
6.95063e-06
5.95372e-06
7.40542e-06
5.65049e-06
7.83355e-06
5.74575e-06
8.12157e-06
6.65488e-06
8.55796e-06
8.87331e-06
8.87158e-06
1.27174e-05
9.70809e-06
1.47321e-05
8.56642e-06
1.01421e-05
-3.42678e-06
-1.12479e-05
5.40643e-06
2.76241e-06
1.06887e-05
-2.23143e-06
1.58168e-05
-6.42728e-06
2.01568e-05
-9.69792e-06
2.19192e-05
-1.28373e-05
2.0453e-05
-1.45098e-05
1.72323e-05
-1.39263e-05
1.39641e-05
-1.05192e-05
1.13262e-05
-5.34858e-06
9.34046e-06
-4.53529e-07
7.96632e-06
3.09132e-06
6.95766e-06
5.58337e-06
6.25648e-06
6.9183e-06
5.88535e-06
7.32176e-06
5.65215e-06
7.63861e-06
5.54474e-06
7.94096e-06
5.77802e-06
7.88829e-06
6.55744e-06
7.77853e-06
7.93841e-06
7.49061e-06
1.07174e-05
6.92909e-06
1.29472e-05
6.33664e-06
1.00828e-05
-5.62451e-07
-1.1659e-06
8.19869e-06
-5.43629e-06
1.77155e-05
-1.17349e-05
2.56192e-05
-1.35097e-05
2.88303e-05
-1.17959e-05
2.73388e-05
-1.0147e-05
2.3276e-05
-9.46286e-06
1.86965e-05
-9.34754e-06
1.48919e-05
-6.71509e-06
1.20747e-05
-2.53148e-06
1.00382e-05
1.58294e-06
8.29689e-06
4.83264e-06
6.80131e-06
7.07895e-06
5.76162e-06
7.95799e-06
5.35924e-06
7.72414e-06
5.23391e-06
7.76394e-06
5.26655e-06
7.90832e-06
5.69259e-06
7.46225e-06
6.60537e-06
6.86575e-06
7.68928e-06
6.4067e-06
9.32831e-06
5.29006e-06
1.07396e-05
4.92533e-06
8.92135e-06
1.25583e-06
7.75476e-06
1.34546e-06
-2.06741e-06
3.18279e-07
3.08664e-07
-3.4363e-06
2.45743e-06
-4.85095e-05
4.09791e-05
-9.6113e-05
4.22415e-05
-0.000116819
1.50691e-05
-0.000124055
1.0386e-06
-0.00013018
-1.55316e-06
-0.000134704
-7.87892e-07
-0.000138149
2.11722e-09
-0.000141397
3.1743e-07
-0.000144592
2.30812e-07
-0.000146072
-1.46379e-06
-0.000143597
-4.36462e-06
-0.00013682
-7.66055e-06
-0.000116963
-2.02446e-05
-6.78845e-05
-4.92431e-05
-7.25172e-06
-5.99553e-05
-8.2548e-06
2.54351e-06
-1.90288e-05
3.18322e-08
2.04033e-06
-3.33779e-05
3.30829e-05
-6.18329e-05
6.51173e-05
-3.83104e-05
1.62035e-05
-3.11119e-05
2.61057e-06
-3.97236e-05
-7.48923e-08
-5.48413e-05
-2.10151e-07
-6.85758e-05
-4.28038e-07
-7.89818e-05
-5.40634e-07
-8.77152e-05
-6.30411e-07
-9.88457e-05
-5.95685e-07
-0.000115873
-1.27511e-06
-0.000134536
-3.48221e-06
-0.000146483
-9.58087e-06
-0.00013191
-4.16691e-05
-8.87122e-05
-9.24788e-05
-2.96647e-05
-0.000119003
-3.79193e-05
-7.33017e-09
-1.7158e-05
-6.5894e-06
7.62433e-06
-4.76495e-05
6.73347e-05
-1.58763e-05
2.91017e-05
-2.51411e-06
2.66986e-06
-8.21088e-08
1.6557e-07
-1.67296e-07
3.58062e-09
-3.86908e-07
5.83744e-09
-8.03851e-07
-1.63023e-09
-1.77568e-06
-4.95863e-08
-3.19594e-06
-3.83989e-07
-3.77847e-06
-1.03165e-06
-4.72422e-06
-1.33112e-06
-1.00963e-05
-9.25383e-07
-3.7595e-05
-1.98662e-06
-9.19459e-05
-1.54673e-05
-9.36934e-05
-0.000106479
-4.25984e-05
-0.000170098
-8.05175e-05
-2.35717e-06
-1.38692e-05
-1.56205e-05
3.05679e-05
-1.66371e-05
6.23792e-05
-2.03924e-06
1.06927e-05
-1.43535e-07
7.42462e-07
-1.55516e-08
3.08036e-08
-2.06802e-08
1.99114e-09
-3.10632e-08
9.50242e-09
-4.73786e-08
1.28191e-08
-9.23666e-08
1.31656e-09
-5.12202e-07
-4.39606e-08
-1.43746e-06
-4.0742e-07
-1.04303e-06
-1.91155e-06
-1.70736e-06
-6.0307e-07
-3.53205e-06
-6.41091e-07
-1.74341e-05
-2.55406e-06
-7.78168e-05
-5.98826e-05
-4.75376e-05
-0.000200377
-0.000128055
-7.75166e-06
-7.23284e-06
-1.76562e-05
3.60979e-05
-5.04279e-06
4.45079e-05
1.31707e-07
5.75334e-06
7.8008e-08
8.26645e-07
4.03797e-08
6.69421e-08
2.11306e-08
1.43582e-08
1.62183e-08
1.0484e-08
5.13303e-09
2.23801e-08
-1.24948e-08
1.93994e-08
-4.49502e-08
-5.59491e-09
-3.91572e-07
-6.50729e-08
-6.27328e-07
-5.32437e-07
9.79719e-07
-1.27791e-06
2.31002e-06
-2.28394e-06
-1.0041e-06
3.88048e-07
-4.73176e-05
-1.72786e-05
-4.44128e-05
-0.000205519
-0.000172468
-1.00161e-05
-1.1566e-07
-7.31533e-06
2.97161e-05
9.34756e-07
1.46727e-05
3.2411e-06
1.09011e-05
4.58032e-06
3.09092e-08
2.68121e-06
1.61732e-07
1.22384e-06
1.1373e-06
3.37443e-07
8.95259e-07
1.13752e-07
2.46582e-07
3.83396e-08
1.01164e-07
4.41999e-09
2.93797e-08
-4.85669e-08
-1.88104e-08
-6.14834e-07
-9.19194e-08
1.57399e-06
-2.09836e-06
3.4169e-06
-3.00674e-06
2.97614e-06
8.81518e-07
-1.13976e-05
-2.13816e-06
-3.65399e-05
-0.00017782
-0.000209007
-4.36886e-06
1.75625e-06
-8.8322e-08
2.12171e-05
1.16857e-05
2.61758e-05
2.5738e-05
7.96169e-06
4.76444e-05
-1.47493e-05
5.36567e-05
-2.36815e-05
3.54177e-05
-6.15332e-06
7.50081e-06
1.00524e-05
2.39941e-06
5.35491e-06
5.39626e-07
1.96111e-06
1.39344e-07
4.22934e-07
6.9403e-08
3.85448e-08
5.08046e-08
-1.19012e-07
9.57471e-07
-8.43882e-07
3.35579e-06
-1.98116e-06
3.98976e-06
1.05308e-06
-3.11149e-06
3.83074e-06
-2.66328e-05
-0.000152653
-0.00023564
6.32093e-07
1.80962e-05
9.58463e-06
3.27309e-05
4.03126e-05
3.1497e-05
8.95917e-05
3.45807e-06
9.87223e-05
-1.93782e-05
0.000100326
-2.39728e-05
7.50906e-05
-1.4986e-05
1.72393e-05
6.69768e-06
6.68721e-06
1.4908e-05
1.61284e-06
6.78108e-06
5.1618e-07
1.44232e-06
2.45364e-07
2.63671e-07
5.30793e-07
-3.98366e-07
1.84184e-06
-2.80814e-06
1.59948e-06
-1.47648e-06
1.95598e-06
1.04687e-06
-1.15217e-06
5.17674e-06
-1.64475e-05
-0.000137819
-0.000252085
1.7304e-05
-6.13719e-06
2.17119e-05
-1.36767e-07
2.16887e-05
-6.56461e-07
1.90835e-05
-1.07056e-06
1.82577e-05
-1.45057e-06
1.86611e-05
-1.63081e-06
1.88679e-05
-2.33404e-06
1.79336e-05
-1.95975e-06
1.76953e-05
-7.38416e-07
1.79835e-05
1.2415e-06
1.76796e-05
5.13657e-06
1.55405e-05
9.21799e-06
1.36971e-05
9.80143e-06
1.31561e-05
8.26516e-06
1.235e-05
8.56995e-06
1.14556e-05
8.80274e-06
1.17621e-05
7.1558e-06
1.34729e-05
5.15497e-06
1.56818e-05
4.19772e-06
1.83469e-05
2.62499e-06
2.19154e-05
1.35681e-06
2.47745e-05
-1.60326e-06
4.61473e-06
2.7914e-05
1.04996e-07
-7.70921e-11
-2.89406e-08
-6.92956e-10
-6.86239e-07
7.24808e-10
-2.09997e-06
-2.83461e-13
-3.26293e-06
-5.43593e-12
-3.51892e-06
-7.27223e-11
-4.05104e-06
-7.78853e-10
-4.49185e-06
-6.99934e-09
-4.27219e-06
-5.54936e-08
-2.99564e-06
-3.35673e-07
-1.98593e-07
-5.25096e-07
6.08955e-06
1.94522e-07
1.28227e-05
1.50564e-06
1.67073e-05
3.64165e-06
1.56913e-05
9.58591e-06
1.25735e-05
1.19206e-05
1.17987e-05
7.93052e-06
1.32357e-05
3.71799e-06
1.50098e-05
2.42368e-06
1.72731e-05
3.61633e-07
2.06145e-05
-1.98457e-06
2.34645e-05
-4.45324e-06
-2.22719e-06
3.03065e-05
-7.36461e-11
-1.13556e-12
-7.13286e-10
-1.27917e-11
-1.19884e-14
1.23457e-11
-2.95422e-13
-1.43948e-16
-5.71766e-12
-1.8313e-14
-7.83722e-11
-1.48965e-13
-8.55602e-10
-2.46595e-12
-7.86063e-09
2.23215e-12
-6.33456e-08
-8.92671e-12
-3.98842e-07
-1.8027e-10
-1.14741e-06
-2.46002e-09
-3.6492e-06
-2.87835e-08
-4.98253e-06
-2.46805e-07
-4.7258e-06
-1.35542e-06
-6.19891e-07
-1.15955e-06
6.09105e-06
7.60537e-07
1.44972e-05
1.6713e-08
1.87883e-05
6.31537e-08
1.88731e-05
2.33887e-06
1.86246e-05
6.10106e-07
2.02974e-05
-3.65726e-06
2.19369e-05
-6.09257e-06
-7.29241e-06
2.70022e-05
-1.11465e-12
-3.0694e-16
-1.2062e-11
-1.6533e-13
-6.29082e-17
4.50467e-13
-3.9244e-16
7.38058e-17
-2.04541e-14
1.60796e-18
-1.71053e-13
9.50434e-17
-2.6536e-12
8.71022e-16
-4.55131e-13
-3.93692e-15
-9.35343e-12
-3.44409e-14
-1.89591e-10
5.77084e-14
-2.64923e-09
-2.77335e-13
-3.14296e-08
-3.15716e-12
-2.78146e-07
-8.93603e-11
-1.63162e-06
-1.9345e-09
-3.29072e-06
-3.17667e-09
-4.41587e-06
-3.55836e-09
-6.20503e-06
-2.68765e-08
-5.74147e-06
-2.96746e-07
-1.1526e-06
-1.67386e-06
8.83375e-06
-3.60345e-06
2.06381e-05
-6.78236e-06
2.54582e-05
-7.17653e-06
-7.98545e-06
2.7456e-05
-3.70192e-15
1.86362e-15
-8.28596e-14
2.10418e-17
1.72166e-13
1.25994e-14
1.79822e-15
7.17651e-15
-4.0634e-18
6.97263e-17
-1.98986e-17
6.39353e-17
3.75793e-16
1.32463e-16
3.76374e-15
-1.51023e-16
1.49263e-14
3.13246e-14
1.16958e-14
1.34048e-13
-3.49548e-14
-1.41437e-13
-3.1254e-12
1.33114e-14
-7.43784e-11
-1.80614e-11
-1.6689e-10
-1.84219e-09
-3.63426e-10
-2.97053e-09
-2.46871e-09
-1.40204e-09
-2.90884e-08
-1.98684e-10
-3.25751e-07
-5.15455e-11
-1.99928e-06
-2.84984e-10
-3.37138e-06
-2.70622e-09
-6.46366e-06
-7.42254e-09
-7.7437e-06
-6.33449e-08
-5.00837e-07
-9.31058e-06
-3.05878e-17
3.94084e-18
5.57694e-17
-3.64743e-19
5.31817e-15
1.05697e-16
2.33341e-16
3.66345e-17
-9.29383e-18
3.3992e-17
-2.24873e-18
5.7316e-17
-3.40037e-20
8.18258e-17
-8.31929e-16
4.0082e-16
-2.76666e-13
2.11249e-13
6.62697e-14
3.69917e-14
4.85523e-13
6.78139e-13
6.97669e-13
1.61819e-14
-1.29731e-10
2.37442e-12
-1.12936e-09
-7.60268e-10
-1.2995e-09
-7.39173e-10
-8.19794e-10
-9.79689e-14
-2.67203e-11
-4.1945e-12
-4.66609e-11
-8.92549e-12
-1.1775e-10
-1.82054e-10
-6.16885e-10
-2.16013e-09
-5.81807e-09
-2.1256e-09
-6.67724e-08
-1.64391e-09
-6.69143e-10
-5.57322e-07
-2.85368e-19
1.09228e-19
3.51385e-19
9.02654e-20
5.11282e-17
4.70918e-18
3.06346e-18
7.61282e-18
1.32348e-18
4.53674e-17
2.64591e-18
1.14248e-16
7.74097e-18
1.26852e-16
-8.66297e-18
1.88401e-16
-4.24124e-13
2.76546e-13
-7.94012e-13
5.7149e-13
2.71957e-13
4.70924e-13
5.37378e-13
1.01109e-13
-1.0856e-10
2.30382e-12
-2.36958e-10
-9.70436e-13
-2.24178e-14
-2.0398e-15
-1.20484e-13
-8.7385e-17
-4.31294e-12
-1.82577e-14
4.48981e-12
-7.06203e-13
9.91637e-10
-2.60567e-10
2.14974e-09
-6.65481e-10
2.83792e-09
-2.80299e-09
2.79944e-09
-3.86778e-09
9.35143e-10
1.43607e-09
-4.14287e-21
3.19786e-21
-9.90646e-20
1.4304e-21
4.51206e-19
2.29014e-19
1.01195e-18
5.64349e-18
4.63184e-18
4.69954e-17
1.12497e-17
1.21947e-16
1.21996e-17
1.81119e-16
6.07139e-17
1.89582e-16
-1.59755e-13
2.23288e-14
-6.52406e-13
3.22542e-13
-3.76568e-13
3.88452e-13
-7.0801e-14
1.86996e-13
3.59517e-13
-6.78005e-13
1.00777e-15
-6.11626e-13
-6.71033e-18
-1.20968e-15
-2.16684e-16
-2.45052e-17
-1.81428e-14
-5.15943e-16
-2.52475e-13
-4.88085e-13
2.15527e-10
-3.56471e-11
4.37835e-09
-2.53126e-09
1.17039e-08
-1.2381e-08
1.84073e-08
-1.04862e-08
-2.9723e-10
2.03919e-08
-7.39806e-23
1.00569e-22
-3.24892e-22
1.96755e-23
1.69797e-20
3.61745e-20
6.15275e-19
3.25172e-18
5.43592e-18
3.23748e-17
1.92321e-17
1.07632e-16
3.23181e-17
1.74298e-16
7.97411e-17
1.79246e-16
6.0079e-15
8.72332e-16
-2.33629e-15
-1.14351e-14
3.31046e-14
1.49281e-13
-3.57748e-13
3.82836e-14
1.71773e-12
-6.1624e-13
4.40043e-16
-4.91204e-13
-7.27684e-19
-9.01206e-16
-4.43238e-17
-1.28003e-16
1.55739e-14
-1.62665e-14
3.59878e-12
-2.82661e-11
4.51599e-10
-1.88744e-10
6.11738e-09
-6.5728e-11
9.45369e-09
-1.56324e-08
1.31136e-08
-1.40589e-08
-3.12162e-09
1.60243e-08
-1.20226e-24
8.40727e-23
-1.40185e-23
9.28898e-25
2.28608e-21
8.8059e-21
2.44567e-19
1.02295e-18
3.46066e-18
1.2268e-17
1.74767e-17
5.5211e-17
4.58501e-17
1.45875e-16
1.45717e-16
1.95692e-16
4.69433e-15
6.73046e-15
1.06931e-14
1.19196e-14
4.0412e-14
2.75627e-15
2.21644e-13
-2.65916e-15
5.24419e-13
-9.99292e-15
1.10958e-15
-1.02062e-14
-1.63625e-17
-2.11056e-15
1.91003e-15
-1.25613e-15
2.28597e-13
-7.55155e-13
5.15821e-12
-5.18074e-11
5.27285e-11
-1.45621e-12
8.52267e-11
-4.99652e-11
3.58206e-09
-9.04469e-09
4.69709e-09
-1.50889e-08
-3.27409e-09
4.93635e-09
-5.42043e-27
-7.27095e-23
-3.6233e-25
4.71241e-25
4.18095e-22
1.66439e-21
7.05218e-20
2.64517e-19
1.2099e-18
3.44384e-18
8.29457e-18
1.96464e-17
2.66708e-17
8.80026e-17
8.99801e-17
9.87947e-17
4.16554e-15
2.02916e-15
1.72052e-14
2.65343e-14
1.45891e-14
1.6909e-14
2.11108e-15
-7.63053e-17
4.93871e-16
-6.59856e-15
9.41958e-18
-8.32037e-15
-1.21758e-17
-5.14818e-16
-1.29212e-15
-2.3968e-17
-1.0026e-11
-9.12532e-15
-2.03437e-13
-1.12076e-13
-6.10253e-12
-2.39914e-12
6.3377e-11
-1.26933e-10
-4.51511e-09
-7.63621e-09
-6.34553e-09
-1.31878e-08
-3.57562e-09
-3.60231e-09
-1.27315e-24
-1.12355e-22
-1.06941e-24
-5.73387e-23
6.4699e-23
2.30999e-22
1.50786e-20
5.80604e-20
2.78169e-19
8.17419e-19
2.33615e-18
5.56203e-18
1.51639e-17
4.58535e-17
3.71548e-17
9.16283e-17
1.06837e-15
1.51409e-16
1.22549e-14
2.47931e-14
1.20316e-14
2.17259e-14
6.54504e-15
1.12827e-14
-1.14403e-16
1.23974e-15
-3.3537e-16
-1.33238e-15
-1.09903e-17
-7.415e-18
-3.27173e-17
-1.19861e-17
-8.5606e-15
-1.99794e-16
-4.90412e-13
-4.49169e-14
-2.60637e-12
-5.24147e-13
-8.52711e-11
-4.71215e-11
-1.02507e-08
-2.99088e-09
-1.47886e-08
-8.51931e-09
-1.87157e-09
-1.63198e-08
-2.2028e-24
-1.20381e-22
-2.75694e-24
-8.66977e-23
1.00752e-23
1.77437e-23
2.18255e-21
1.03507e-20
4.26254e-20
1.63296e-19
4.30873e-19
1.47025e-18
5.8318e-18
2.51208e-17
1.47046e-17
9.81178e-17
9.17638e-17
8.96592e-17
3.31809e-15
3.39762e-15
2.11001e-15
1.25732e-14
-2.81019e-15
1.92438e-14
-2.48571e-15
8.62824e-15
-7.28533e-18
-4.16076e-19
-1.16311e-17
-4.0471e-18
-1.69296e-17
-7.66543e-18
-2.02152e-16
-2.17738e-17
-4.49094e-14
-2.94559e-16
-5.64274e-13
-1.11381e-14
-4.65561e-11
-1.30986e-12
-4.94626e-09
-7.24147e-11
-1.64308e-08
-1.53838e-09
2.23751e-10
-1.8319e-08
-2.10253e-24
-1.12411e-22
-2.64998e-24
-8.05619e-23
1.89306e-24
2.24362e-24
1.67226e-22
1.48145e-21
3.25533e-21
2.74703e-20
4.04232e-20
3.8694e-19
8.88073e-19
1.24002e-17
2.46692e-18
8.01752e-17
8.11016e-19
9.44229e-17
-2.21744e-17
4.4883e-17
-4.15791e-15
4.59004e-16
-4.34819e-15
1.15904e-14
-2.20906e-16
5.06751e-16
-1.38035e-17
3.61439e-18
-1.50481e-17
7.96157e-19
-3.10337e-17
-1.76911e-18
-4.98992e-17
-1.07698e-17
-1.90333e-16
-3.98654e-17
-1.11524e-14
-1.98275e-16
-1.31069e-12
-1.60732e-14
-7.34393e-11
-4.14779e-13
-1.60987e-09
-4.24187e-12
-7.78248e-11
-2.8484e-09
-1.53148e-24
-9.43143e-23
-1.5888e-24
-6.41459e-23
-4.2986e-26
-3.5536e-23
-8.66125e-24
1.5563e-22
-2.4685e-22
3.83157e-21
-2.69174e-20
9.36806e-20
-1.15639e-18
3.77248e-18
-5.2579e-18
3.12956e-17
-5.83931e-18
6.43791e-17
-1.81887e-17
3.51334e-17
-6.72221e-16
4.25823e-17
-2.73131e-17
7.25576e-17
-9.24343e-18
3.04858e-18
-1.25855e-17
3.03535e-18
-9.33163e-18
4.35433e-18
-2.48184e-17
9.83363e-19
-9.93295e-17
2.82736e-18
-1.77637e-16
-4.70157e-19
-3.25525e-16
-1.01095e-17
-1.64979e-14
-2.42565e-17
-4.36685e-13
-3.60655e-16
-6.35321e-12
-5.43938e-14
-2.09797e-12
-8.29804e-11
-9.13326e-25
-7.1121e-23
-4.88179e-25
-4.50731e-23
-9.14764e-25
-6.95035e-23
-3.45771e-24
7.97283e-24
-1.3168e-22
4.28677e-22
-1.65831e-20
2.0483e-20
-7.17296e-19
8.18178e-19
-4.98571e-18
7.96685e-18
-7.25993e-18
2.20476e-17
-4.87156e-18
2.8192e-17
-6.36235e-18
1.23126e-17
-2.99473e-18
6.37003e-18
-3.78961e-18
2.79603e-18
-4.52772e-18
1.67696e-18
-1.17629e-18
8.17148e-19
-2.44792e-18
1.13364e-19
-4.38712e-17
7.73028e-19
-2.21823e-16
2.04817e-17
-4.34678e-16
7.60827e-17
-1.01534e-15
1.42938e-16
-1.38685e-14
8.13875e-16
-1.02152e-13
3.84083e-15
-7.69907e-14
-2.14849e-12
-4.54262e-25
-4.7876e-23
1.713e-25
-2.75924e-23
-4.30163e-26
-5.64135e-23
-2.1107e-25
1.73744e-24
-3.23078e-23
3.71383e-23
-5.14842e-21
4.01794e-21
-2.06371e-19
1.48401e-19
-1.46746e-18
1.39737e-18
-3.6119e-18
4.45188e-18
-4.7506e-18
7.78304e-18
-4.41167e-18
1.21984e-17
-2.8693e-18
5.51895e-18
-1.5662e-18
2.23287e-18
-6.21042e-19
3.94171e-19
-1.39151e-19
5.10882e-20
-1.76488e-19
1.89497e-20
-8.97081e-19
2.60712e-20
-2.03609e-17
5.6143e-19
-1.66838e-16
1.33463e-17
-9.25137e-16
1.86802e-16
-7.60175e-15
1.16715e-15
-2.48194e-14
5.02356e-15
1.61613e-14
-4.83219e-14
-1.89759e-25
-2.84963e-23
4.12691e-25
-1.45868e-23
1.3068e-25
-3.48825e-23
-1.14458e-24
-3.69386e-24
-6.51154e-24
2.69183e-24
-1.16354e-21
6.67461e-22
-3.73612e-20
2.20629e-20
-2.72013e-19
1.98233e-19
-9.11158e-19
7.71998e-19
-2.37351e-18
1.87284e-18
-2.19616e-18
3.67159e-18
-7.96506e-19
1.73047e-18
-1.56746e-19
3.062e-19
-2.95591e-20
3.26821e-20
-1.34589e-20
3.03345e-21
-1.73e-20
1.95638e-21
-9.11449e-20
9.10769e-21
-2.06574e-18
1.59092e-19
-3.72319e-17
3.52092e-18
-3.4062e-16
6.80097e-17
-2.0946e-15
6.32123e-16
-1.07195e-14
3.12265e-15
1.46396e-14
-3.40999e-14
-6.54087e-26
-1.48276e-23
3.41797e-25
-6.53987e-24
1.77107e-25
-1.78014e-23
-1.16919e-25
-4.0712e-24
-1.11578e-24
2.26795e-25
-1.90592e-22
8.84843e-23
-5.46525e-21
2.90081e-21
-5.12016e-20
2.86715e-20
-2.02807e-19
1.31598e-19
-3.94697e-19
2.72439e-19
-4.01117e-19
2.95878e-19
-1.75127e-19
2.07699e-19
-3.27931e-20
7.10074e-20
-2.69801e-21
1.01535e-20
-8.69503e-22
4.87287e-22
-1.32641e-21
1.02788e-22
-1.4313e-20
2.28918e-21
-3.20243e-19
5.11015e-20
-1.11295e-17
1.31311e-18
-2.30082e-16
4.24698e-17
-1.47376e-15
5.81932e-16
-4.58987e-15
2.48446e-15
6.24844e-15
-1.21884e-14
-1.83132e-26
-6.65971e-24
1.81946e-25
-2.42425e-24
1.01152e-25
-7.39334e-24
-1.25649e-26
-2.06356e-24
-1.41607e-25
2.16828e-26
-2.47293e-23
9.36709e-24
-7.75508e-22
3.62916e-22
-8.7924e-21
4.13532e-21
-3.51786e-20
1.91816e-20
-4.90355e-20
3.59571e-20
-5.27011e-20
3.54242e-20
-2.9564e-20
2.66324e-20
-6.6299e-21
1.17229e-20
-4.20711e-22
2.17111e-21
-2.81599e-23
7.83537e-23
-7.94909e-23
3.5574e-24
-2.64804e-21
4.3894e-22
-6.13334e-20
1.58924e-20
-2.1558e-18
3.69831e-19
-8.2319e-17
1.0691e-17
-8.63814e-16
2.44135e-16
-2.7187e-15
1.57973e-15
3.66598e-15
-4.5063e-15
-4.23917e-27
-2.5488e-24
6.80475e-26
-7.18423e-25
3.71387e-26
-2.43097e-24
-1.1937e-27
-7.13746e-25
-1.23226e-26
1.46094e-27
-2.75882e-24
7.67285e-25
-1.06078e-22
4.11207e-23
-1.20681e-21
5.36127e-22
-4.61331e-21
2.32044e-21
-6.23984e-21
4.34314e-21
-6.53553e-21
4.65919e-21
-3.82789e-21
3.25827e-21
-9.51766e-22
1.33859e-21
-3.67209e-23
2.15548e-22
-1.30678e-24
4.04087e-23
-5.15771e-24
4.34331e-24
-5.19352e-22
6.36698e-23
-1.66982e-20
4.7346e-21
-3.41702e-19
1.12281e-19
-9.40095e-18
1.59403e-18
-1.67169e-16
2.52175e-17
-8.72046e-16
3.08889e-16
1.50926e-15
-1.79989e-15
-8.97942e-28
-8.2155e-25
1.80768e-26
-1.63082e-25
9.60252e-27
-6.11691e-25
-7.06782e-29
-1.81708e-25
-6.60144e-28
9.47187e-28
-2.38966e-25
4.17547e-26
-1.26507e-23
3.52613e-24
-1.39766e-22
5.52376e-23
-4.75052e-22
2.26431e-22
-6.51141e-22
3.98553e-22
-6.6684e-22
4.43751e-22
-3.53312e-22
3.03183e-22
-4.79158e-23
8.20959e-23
1.39702e-23
5.9506e-23
1.32785e-23
-3.29155e-23
-2.55749e-23
-2.898e-23
-7.6147e-23
7.80617e-24
-4.65279e-21
1.01128e-21
-9.24603e-20
3.55479e-20
-1.00957e-18
4.48788e-19
-1.16749e-17
3.44982e-18
-1.19881e-16
3.19187e-17
3.53121e-16
-5.71925e-16
-2.03745e-28
-2.21101e-25
3.37013e-27
-2.68354e-26
1.77116e-27
-1.13974e-25
3.86635e-29
-3.42552e-26
-2.01459e-27
-5.36396e-28
-1.38582e-26
1.27888e-27
-1.06713e-24
1.82511e-25
-1.18537e-23
3.51987e-24
-3.56669e-23
1.45911e-23
-5.0891e-23
2.49907e-23
-5.20098e-23
2.85914e-23
-1.78914e-23
1.52867e-23
6.09512e-24
3.19462e-23
2.07353e-23
-1.87123e-23
1.73728e-23
-5.87378e-23
-2.61738e-24
-4.62825e-23
-7.43967e-24
4.46035e-24
-8.0253e-22
1.47549e-22
-2.34501e-20
8.19322e-21
-2.28737e-19
1.43877e-19
-1.41668e-18
1.12122e-18
-1.20109e-17
7.11613e-18
7.08704e-17
-1.06462e-16
-5.18439e-29
-4.94985e-26
4.31035e-28
-2.97035e-27
2.30159e-28
-1.52909e-26
1.62375e-29
-4.7153e-27
-6.06998e-29
-2.40576e-28
-4.49438e-28
2.15062e-29
-4.92705e-26
4.49302e-27
-5.95211e-25
1.10447e-25
-1.8053e-24
5.02787e-25
-2.49537e-24
8.44577e-25
-1.75263e-24
7.72367e-25
1.21282e-24
4.57546e-24
8.51657e-24
-4.83604e-24
1.43525e-23
-3.12966e-23
1.10576e-23
-4.94501e-23
-8.57236e-26
-3.64073e-23
-1.81593e-23
2.76019e-25
-9.8989e-23
1.96463e-23
-4.05285e-21
1.5372e-21
-5.10714e-20
3.61548e-20
-2.98392e-19
3.68455e-19
-1.71734e-18
2.26589e-18
1.61135e-17
-1.22316e-17
-1.29009e-29
-9.24437e-27
3.6312e-29
-1.99568e-28
2.05034e-29
-1.42234e-27
2.15066e-30
-4.63482e-28
-1.13306e-30
-3.52416e-29
-6.41044e-30
1.44439e-29
-1.11377e-27
5.02253e-29
-1.78499e-26
1.55954e-27
-4.22098e-26
7.36562e-27
-4.55193e-26
2.94893e-26
2.56238e-25
2.19544e-25
1.69e-24
-1.33338e-24
4.41864e-24
-8.08807e-24
5.95848e-24
-1.97914e-23
4.37336e-24
-2.54548e-23
8.32628e-25
-1.81941e-23
-3.39091e-24
-3.45453e-24
-1.12413e-23
3.07107e-24
-5.84189e-22
2.80018e-22
-9.31091e-21
8.0922e-21
-5.38428e-20
9.56947e-20
-1.90265e-19
5.56148e-19
2.76713e-18
-6.21684e-19
-2.91172e-30
-1.45509e-27
2.15126e-30
-9.79361e-30
1.32361e-30
-9.93225e-29
2.11935e-31
-3.47384e-29
3.47287e-31
-4.01012e-30
-2.91072e-30
-5.1126e-30
-1.29758e-29
3.48885e-29
-1.8103e-28
8.60469e-28
-3.62574e-28
3.77424e-27
2.38815e-26
5.24519e-27
1.76456e-25
-1.64652e-25
6.50274e-25
-1.11374e-24
1.36981e-24
-3.82954e-24
1.65174e-24
-7.68144e-24
1.16347e-24
-9.00642e-24
3.16522e-25
-6.32129e-24
-3.57506e-25
-1.76296e-24
-1.12389e-24
4.66688e-25
-7.09015e-23
4.68658e-23
-1.33589e-21
1.71297e-21
-6.4229e-21
2.29438e-20
-4.26297e-21
1.0613e-19
2.23724e-19
8.59213e-20
-5.90057e-31
-1.95808e-28
9.33936e-32
-4.12992e-31
6.53447e-32
-5.59357e-30
3.0688e-32
-2.13742e-30
2.73295e-31
-7.0998e-31
2.13098e-30
-4.89156e-30
1.32249e-29
-3.10252e-29
1.24231e-28
-1.62377e-28
1.23299e-27
-1.32165e-27
9.65659e-27
-1.16536e-26
4.73165e-26
-8.27794e-26
1.47204e-25
-3.7592e-25
2.80018e-25
-1.10827e-24
3.14439e-25
-2.04547e-24
2.11714e-25
-2.29087e-24
6.1157e-26
-1.58765e-24
-3.33795e-26
-4.91773e-25
-8.41839e-26
7.37833e-26
-5.95061e-24
7.65458e-24
-1.11243e-22
3.85785e-22
3.76098e-22
5.70337e-21
4.08119e-21
1.85253e-20
5.80751e-21
8.73157e-21
-1.06668e-31
-2.28602e-29
2.89659e-33
-1.97242e-32
2.63185e-33
-2.67326e-31
5.78504e-33
-1.19463e-31
7.79531e-32
-1.77715e-31
8.07574e-31
-1.82691e-30
6.68597e-30
-1.52883e-29
5.04674e-29
-1.06571e-28
3.48367e-28
-6.99504e-28
1.96136e-27
-4.305e-27
8.06897e-27
-2.21937e-26
2.2548e-26
-8.57916e-26
3.96828e-26
-2.31399e-25
4.14707e-26
-4.05504e-25
2.60339e-26
-4.3923e-25
6.78875e-27
-2.99773e-25
-2.66134e-27
-9.12789e-26
-4.3368e-27
1.26848e-26
-1.93296e-26
1.45007e-24
1.81991e-23
9.50275e-23
4.51834e-22
1.19419e-21
1.41637e-21
3.28661e-21
3.92497e-22
4.62504e-22
-1.66157e-32
-2.34584e-30
4.82439e-35
-1.50459e-33
9.56965e-35
-1.12717e-32
8.01973e-34
-7.35322e-33
1.21333e-32
-3.73836e-32
1.36188e-31
-4.2014e-31
1.17652e-30
-3.74254e-30
8.40391e-30
-2.70948e-29
5.07171e-29
-1.68256e-28
2.46913e-28
-9.11995e-28
9.06404e-28
-4.12295e-27
2.31524e-27
-1.45282e-26
3.73703e-27
-3.69418e-26
3.50561e-27
-6.23969e-26
1.87733e-27
-6.5479e-26
3.32414e-28
-4.38684e-26
-4.78778e-29
-1.21308e-26
5.80802e-28
1.96022e-27
9.23794e-26
2.18547e-25
1.00336e-23
1.693e-23
1.54443e-22
2.0426e-22
3.86906e-22
6.00204e-22
1.17649e-22
8.76442e-23
-2.21505e-33
-2.13804e-31
-5.32013e-37
-1.60012e-34
2.50712e-36
-4.35728e-34
5.91441e-35
-5.76473e-34
9.67689e-34
-5.61595e-33
1.1608e-32
-6.40352e-32
1.02258e-31
-5.77663e-31
7.09269e-31
-4.21321e-30
3.97132e-30
-2.56162e-29
1.75879e-29
-1.31804e-28
5.7997e-29
-5.61506e-28
1.29238e-28
-1.88519e-27
1.68304e-28
-4.63623e-27
1.00188e-28
-7.64683e-27
-5.57866e-30
-7.79485e-27
-1.01083e-28
-5.11771e-27
-5.38599e-29
-1.2143e-27
2.41775e-28
2.21974e-28
2.22868e-26
1.90337e-26
2.38331e-24
1.83477e-24
3.69784e-23
2.91118e-23
9.46648e-23
1.08589e-22
4.87819e-23
3.22637e-23
-2.48476e-34
-1.74452e-32
-1.78606e-37
-1.6954e-35
-5.48323e-38
-1.61289e-35
-1.20718e-38
-4.91102e-35
1.62442e-35
-6.11873e-34
3.13428e-34
-6.98743e-33
2.85092e-33
-6.31854e-32
1.8473e-32
-4.62882e-31
8.24213e-32
-2.79969e-30
2.12516e-31
-1.41392e-29
-2.63058e-32
-5.88294e-29
-1.37044e-30
-1.93503e-28
-7.63543e-30
-4.69035e-28
-2.21995e-29
-7.62342e-28
-3.4861e-29
-7.58442e-28
-3.30407e-29
-4.88118e-28
-9.04316e-30
-9.48327e-29
3.7199e-29
1.52775e-29
2.68525e-27
1.05593e-27
3.4846e-25
1.41489e-25
7.16889e-24
3.60526e-24
2.12648e-23
1.80496e-23
1.87847e-23
1.6635e-23
-2.39199e-35
-1.28153e-33
-2.74149e-38
-1.60658e-36
-6.31282e-39
-5.97798e-37
-3.32246e-38
-3.7973e-36
-4.11546e-37
-5.13736e-35
-4.90341e-36
-5.86739e-34
-5.01186e-35
-5.31801e-33
-4.63752e-34
-3.91784e-32
-3.72548e-33
-2.3776e-31
-2.54507e-32
-1.19807e-30
-1.43225e-31
-4.9597e-30
-6.33522e-31
-1.62312e-29
-2.04571e-30
-3.9153e-29
-4.34632e-30
-6.3028e-29
-5.52888e-30
-6.15224e-29
-4.49164e-30
-3.88464e-29
-8.57769e-31
-5.82314e-30
3.46877e-30
7.96135e-31
2.05741e-28
4.70765e-29
3.53849e-26
8.47056e-27
1.1423e-24
3.68631e-25
4.19645e-24
2.47475e-24
1.54518e-24
3.62125e-24
-2.00248e-36
-8.50662e-35
-2.98575e-39
-1.34562e-37
-3.52311e-40
-2.28127e-38
-3.72018e-39
-2.51697e-37
-5.4981e-38
-3.5029e-36
-6.94667e-37
-4.0101e-35
-7.4468e-36
-3.64515e-34
-6.74832e-35
-2.70405e-33
-5.16923e-34
-1.65282e-32
-3.33597e-33
-8.37035e-32
-1.76752e-32
-3.4784e-31
-7.36874e-32
-1.14154e-30
-2.24398e-31
-2.75449e-30
-4.50789e-31
-4.3996e-30
-5.40633e-31
-4.23008e-30
-4.15956e-31
-2.61899e-30
-5.55873e-32
-2.83367e-31
2.43672e-31
4.21272e-32
1.28945e-29
2.28063e-30
2.70013e-27
4.23982e-28
1.39243e-25
2.82855e-26
6.31943e-25
2.35544e-25
5.22246e-26
2.88019e-25
-1.45955e-37
-5.11348e-36
-2.54484e-40
-9.9866e-39
-1.60892e-41
-8.94554e-40
-2.564e-40
-1.43503e-38
-3.85543e-39
-2.01685e-37
-4.96597e-38
-2.31801e-36
-5.37244e-37
-2.11424e-35
-4.91324e-36
-1.58022e-34
-3.79775e-35
-9.74306e-34
-2.45227e-34
-4.97512e-33
-1.30091e-33
-2.08362e-32
-5.42409e-33
-6.87945e-32
-1.64626e-32
-1.66298e-31
-3.25155e-32
-2.63506e-31
-3.82957e-32
-2.49895e-31
-2.86299e-32
-1.51415e-31
-2.62616e-33
-1.1293e-32
1.5128e-32
2.39734e-33
8.16434e-31
1.28726e-31
1.61879e-28
1.74833e-29
1.19826e-26
1.4939e-27
6.44067e-26
1.4573e-26
2.58226e-27
1.88865e-26
-9.32405e-39
-2.7869e-37
-1.7785e-41
-6.61773e-40
-6.35993e-43
-3.52661e-41
-1.27615e-41
-7.16886e-40
-1.8679e-40
-1.01082e-38
-2.3927e-39
-1.16712e-37
-2.58554e-38
-1.06833e-36
-2.40035e-37
-8.04356e-36
-1.89739e-36
-5.00262e-35
-1.25261e-35
-2.57806e-34
-6.78364e-35
-1.08937e-33
-2.88151e-34
-3.61992e-33
-8.85558e-34
-8.75922e-33
-1.75274e-33
-1.3742e-32
-2.0528e-33
-1.28484e-32
-1.51136e-33
-7.58715e-33
-9.64645e-35
-3.90486e-34
8.33071e-34
1.2184e-34
4.80147e-32
6.48928e-33
6.80779e-30
5.19721e-31
6.49925e-28
5.02934e-29
4.25522e-27
6.20085e-28
1.198e-28
1.12049e-27
-5.19683e-40
-1.37837e-38
-1.05221e-42
-3.92554e-41
-2.24236e-44
-1.36669e-42
-4.91252e-43
-3.2004e-41
-6.57786e-42
-4.51796e-40
-8.18143e-41
-5.23853e-39
-8.78402e-40
-4.81162e-38
-8.33195e-39
-3.64655e-37
-6.79731e-38
-2.28613e-36
-4.67517e-37
-1.18834e-35
-2.63791e-36
-5.06316e-35
-1.15679e-35
-1.69145e-34
-3.63465e-35
-4.08856e-34
-7.24614e-35
-6.33364e-34
-8.5142e-35
-5.82578e-34
-6.18428e-35
-3.33422e-34
-2.83736e-36
-1.21138e-35
3.57464e-35
4.6748e-36
2.12327e-33
2.34994e-34
2.00716e-31
1.3024e-32
2.23281e-29
1.28691e-30
1.90931e-28
2.1753e-29
5.40384e-30
5.04068e-29
-2.54313e-41
-6.19277e-40
-5.30334e-44
-2.09708e-42
-7.03786e-46
-5.13154e-44
-1.5215e-44
-1.29903e-42
-1.70227e-43
-1.83598e-41
-1.93584e-42
-2.13499e-40
-1.98044e-41
-1.96762e-39
-1.95498e-40
-1.4991e-38
-1.72244e-39
-9.46242e-38
-1.27249e-38
-4.95597e-37
-7.63817e-38
-2.12638e-36
-3.52302e-37
-7.12853e-36
-1.1487e-36
-1.71685e-35
-2.336e-36