/*--------------------------------*- C++ -*----------------------------------*\
| =========                 |                                                 |
| \\      /  F ield         | OpenFOAM: The Open Source CFD Toolbox           |
|  \\    /   O peration     | Version:  2206                                  |
|   \\  /    A nd           | Website:  www.openfoam.com                      |
|    \\/     M anipulation  |                                                 |
\*---------------------------------------------------------------------------*/
FoamFile
{
    version     2.0;
    format      ascii;
    arch        "LSB;label=32;scalar=64";
    class       volScalarField;
    location    "0.6";
    object      p;
}
// * * * * * * * * * * * * * * * * * * * * * * * * * * * * * * * * * * * * * //

dimensions      [1 -1 -2 0 0 0 0];

internalField   nonuniform List<scalar> 
2268
(
532.8
530.55
531.407
536.241
546.332
561.563
579.47
597.057
614.301
632.785
653.466
676.237
700.524
725.737
751.256
776.41
799.612
819.597
835.169
839.753
837.748
860.482
899.282
473.766
470.863
471.476
476.132
486.046
501.361
519.698
537.527
554.859
573.364
594
616.766
641.137
666.434
692.009
717.234
740.921
761.705
779.736
785.317
773.997
788.333
834.429
414.116
410.576
410.838
414.933
424.371
439.807
458.981
477.352
494.877
513.47
534.238
557.142
581.622
606.977
632.479
657.442
681.117
702.462
720.276
729.577
716.919
722.831
771.65
354.467
350.05
349.575
352.754
361.339
376.982
397.275
416.622
434.474
453.167
474.079
497.179
521.891
547.476
573.1
598.059
621.687
643.236
661.076
672.406
667.393
672.351
716.405
295.435
289.639
287.963
289.747
297.275
313.365
334.982
355.471
373.715
392.52
413.591
436.911
461.959
487.943
513.883
539.096
562.986
584.925
603.534
617.262
622.595
631.027
667.836
237.25
230.011
226.23
227.033
233.92
250.456
272.903
293.981
312.491
331.443
352.774
376.351
401.835
428.391
454.805
480.425
504.8
527.407
547.281
563.884
576.503
589.018
620.681
179.764
171.397
166.617
166.356
172.796
189.183
211.184
231.908
250.553
269.672
291.48
315.469
341.579
368.923
395.925
422.038
446.997
470.362
491.499
510.341
527.262
543.926
572.11
122.688
110.268
102.137
103.4
111.108
127.146
148.208
168.414
187.711
207.638
229.629
254.058
280.966
309.397
337.171
363.907
389.578
413.776
436.043
456.587
476.265
497.101
524.519
800.608
779.849
778.069
773.85
613.595
450.6
384.312
367.442
368.202
371.009
376.695
402.607
445.396
471.531
574.891
980.181
1625.45
1939.82
1822.21
791.924
766.387
772.125
664.902
421.097
334.861
327.678
330.131
331.203
333.062
336.192
344.828
366.043
384.059
455.855
766.768
1372.74
1803.72
1761.04
769.552
747.155
730.995
452.186
340.957
324.538
323.489
322.944
321.825
321.258
322.348
329.122
345.438
356.241
369.703
439.532
905.268
1573.11
1674.41
763.655
740.06
624.647
367.712
327.74
323.066
323.397
323.151
321.89
320.837
321.223
324.401
338.181
356.352
365.677
380.421
548.452
1240.4
1545.8
803.409
775.951
539.768
364.557
328.212
322.912
323.466
323.351
321.981
320.572
320.642
322.487
327.346
348.317
366.75
379.015
420.764
871.336
1373.41
853.022
821.173
571.108
378.376
330.33
323.625
323.341
323.091
321.866
320.736
320.815
322.084
325.503
338.181
362.791
379.807
382.325
588.598
1177.33
880.469
856.695
640.531
410.463
337.049
316.331
311.353
317.596
320.009
320.571
320.764
322.264
325.603
333.685
353.452
368.574
366.126
439.223
980.052
880.546
880.231
686.192
431.007
314.906
273.665
248.046
268.373
301.972
317.821
320.877
323.166
326.574
332.876
348.396
357.365
352.777
359.214
802.293
50.1984
38.398
29.9828
30.3217
39.3259
51.0034
63.6882
75.7591
90.5034
109.228
131.566
157.144
186.267
217
245.903
273.469
300.161
325.678
349.614
372.471
394.801
418.423
447.662
0.78137
0.548543
0.374309
0.408171
3.43283
6.86606
8.98546
10.8639
14.5815
21.0847
30.2619
44.1662
65.9411
93.2903
122.496
151.857
180.222
207.327
232.741
257.956
284.34
311.293
342.954
0.276842
0.226772
0.15781
0.112418
0.164668
0.158268
0.134166
0.117382
0.0840321
0.0309248
0.292974
1.92339
7.09438
16.2799
30.7402
49.9499
69.4648
91.4443
117.098
142.631
169.824
196.314
224.773
0.132899
0.111166
-0.00459001
-0.0828877
-0.0306328
-0.0285841
-0.0570919
-0.0755544
-0.0713762
-0.047453
-0.0247746
-0.0524968
-0.0356877
0.097099
1.35512
4.65795
9.18125
18.1778
31.8078
47.4717
65.5802
86.536
111.197
-0.0340735
-0.0452228
-0.103918
-0.128268
-0.107331
-0.144513
-0.17274
-0.19333
-0.210356
-0.221259
-0.21613
-0.205613
-0.171919
-0.122703
-0.0769684
-0.0243109
-0.00654511
-0.0567833
0.097876
1.9314
7.39996
17.3476
26.6759
-0.216454
-0.225753
-0.249371
-0.282351
-0.291693
-0.294563
-0.307016
-0.317246
-0.322682
-0.32332
-0.312056
-0.307421
-0.294968
-0.269987
-0.24752
-0.217619
-0.201575
-0.179762
-0.120074
-0.0695438
-0.0299207
-0.0160319
0.00552042
-0.383368
-0.390658
-0.403125
-0.420137
-0.426239
-0.43691
-0.446167
-0.453383
-0.4571
-0.456197
-0.446849
-0.440031
-0.425036
-0.404921
-0.37826
-0.349297
-0.323607
-0.303964
-0.26842
-0.252296
-0.17831
-0.0833709
0.0223976
-0.543961
-0.549619
-0.555319
-0.565784
-0.572047
-0.579317
-0.585367
-0.589263
-0.590071
-0.587418
-0.581261
-0.572725
-0.560427
-0.545251
-0.521461
-0.496391
-0.472186
-0.446264
-0.412156
-0.372568
-0.318246
-0.25867
-0.180677
-0.701544
-0.70432
-0.707515
-0.714061
-0.718818
-0.723418
-0.726921
-0.729069
-0.729155
-0.726169
-0.719486
-0.710476
-0.697408
-0.682071
-0.662684
-0.641394
-0.620194
-0.597679
-0.574477
-0.55215
-0.532513
-0.521582
-0.502103
-0.855467
-0.856988
-0.858689
-0.86263
-0.865636
-0.86847
-0.870248
-0.870745
-0.869346
-0.865507
-0.859051
-0.84999
-0.838613
-0.824464
-0.807358
-0.788745
-0.769349
-0.749236
-0.730223
-0.717574
-0.723362
-0.755407
-0.788566
-1.00736
-1.00841
-1.00913
-1.01138
-1.01302
-1.01438
-1.01478
-1.01397
-1.01158
-1.00731
-1.00089
-0.992246
-0.981385
-0.968531
-0.952873
-0.936744
-0.91946
-0.901842
-0.886682
-0.87775
-0.891851
-0.940167
-0.975511
-1.15818
-1.1588
-1.15917
-1.16026
-1.16093
-1.16122
-1.16068
-1.15904
-1.15604
-1.15144
-1.14503
-1.13682
-1.12686
-1.11463
-1.10128
-1.0867
-1.07113
-1.05564
-1.04236
-1.03582
-1.04943
-1.0826
-1.09312
-1.30848
-1.30877
-1.30892
-1.30931
-1.30931
-1.30891
-1.30775
-1.30562
-1.3023
-1.29762
-1.29144
-1.28375
-1.27451
-1.26354
-1.25165
-1.23852
-1.22457
-1.2107
-1.19875
-1.19364
-1.2056
-1.22886
-1.23025
-1.45858
-1.45863
-1.45864
-1.4586
-1.45818
-1.45735
-1.45583
-1.45348
-1.4501
-1.4456
-1.43982
-1.43278
-1.42449
-1.41504
-1.40412
-1.39233
-1.37981
-1.36708
-1.35544
-1.34892
-1.35384
-1.36826
-1.37055
-1.60867
-1.60858
-1.60849
-1.60819
-1.60752
-1.60646
-1.6048
-1.60241
-1.59917
-1.59498
-1.58975
-1.58346
-1.57612
-1.56773
-1.55829
-1.54802
-1.53706
-1.52558
-1.51439
-1.50579
-1.50311
-1.50414
-1.50186
-1.75886
-1.75869
-1.75854
-1.75809
-1.75732
-1.75617
-1.75451
-1.75224
-1.74927
-1.74551
-1.74093
-1.73547
-1.72916
-1.72201
-1.71406
-1.70544
-1.69631
-1.68691
-1.6776
-1.66945
-1.66283
-1.65793
-1.65284
-1.90919
-1.909
-1.90879
-1.9083
-1.90751
-1.90639
-1.90485
-1.90281
-1.9002
-1.89698
-1.8931
-1.88855
-1.88334
-1.8775
-1.8711
-1.86424
-1.85706
-1.84976
-1.84266
-1.83633
-1.83116
-1.82726
-1.82423
-2.05967
-2.0595
-2.05926
-2.05879
-2.05806
-2.05705
-2.05571
-2.05397
-2.05181
-2.04918
-2.04606
-2.04245
-2.03838
-2.0339
-2.02909
-2.02406
-2.01895
-2.01397
-2.00944
-2.00578
-2.00343
-2.00286
-2.00435
-2.21031
-2.21016
-2.20994
-2.20952
-2.2089
-2.20806
-2.20698
-2.20561
-2.20393
-2.20193
-2.19959
-2.19695
-2.19404
-2.19092
-2.18771
-2.18452
-2.18152
-2.17894
-2.17711
-2.17647
-2.17748
-2.18072
-2.18688
-2.36108
-2.36096
-2.36077
-2.36045
-2.35997
-2.35935
-2.35856
-2.35758
-2.35642
-2.35505
-2.35351
-2.35182
-2.35004
-2.34827
-2.3466
-2.3452
-2.34425
-2.34401
-2.34484
-2.34717
-2.35153
-2.35858
-2.36912
-2.51195
-2.51187
-2.51173
-2.51152
-2.51121
-2.51082
-2.51035
-2.50978
-2.50913
-2.5084
-2.50763
-2.50686
-2.50617
-2.50566
-2.50546
-2.50574
-2.50671
-2.50865
-2.51193
-2.517
-2.52441
-2.53484
-2.54916
-2.66288
-2.66284
-2.66277
-2.66268
-2.66255
-2.66241
-2.66225
-2.6621
-2.66194
-2.66182
-2.66178
-2.66187
-2.66219
-2.66286
-2.66401
-2.66582
-2.66853
-2.67242
-2.67787
-2.68535
-2.69538
-2.70864
-2.72594
-2.81384
-2.81384
-2.81384
-2.81388
-2.81393
-2.81403
-2.81419
-2.81441
-2.81473
-2.81518
-2.81581
-2.8167
-2.81793
-2.81965
-2.82201
-2.82518
-2.8294
-2.83498
-2.84228
-2.85175
-2.86392
-2.87941
-2.89894
-2.96477
-2.96481
-2.96489
-2.96505
-2.96528
-2.96561
-2.96606
-2.96665
-2.96741
-2.96837
-2.96961
-2.9712
-2.97324
-2.97587
-2.97926
-2.98359
-2.9891
-2.99608
-3.00489
-3.01595
-3.02976
-3.04687
-3.06796
-3.11565
-3.11573
-3.11588
-3.11616
-3.11654
-3.11709
-3.1178
-3.11872
-3.11986
-3.12129
-3.12306
-3.12525
-3.12798
-3.13139
-3.13563
-3.14091
-3.14746
-3.15555
-3.16551
-3.17775
-3.19273
-3.21095
-3.23299
-3.26644
-3.26655
-3.26676
-3.26714
-3.26767
-3.26841
-3.26936
-3.27056
-3.27204
-3.27385
-3.27607
-3.27877
-3.28207
-3.2861
-3.29102
-3.29704
-3.30438
-3.31329
-3.32408
-3.3371
-3.35281
-3.37166
-3.39414
-3.4171
-3.41724
-3.41749
-3.41797
-3.41863
-3.41952
-3.42068
-3.42211
-3.42387
-3.426
-3.42858
-3.43169
-3.43543
-3.43994
-3.44538
-3.45192
-3.45981
-3.46928
-3.48059
-3.49396
-3.51003
-3.52909
-3.5516
-3.56759
-3.56777
-3.56805
-3.56862
-3.56937
-3.5704
-3.57172
-3.57334
-3.57531
-3.57769
-3.58054
-3.58395
-3.58802
-3.59287
-3.59866
-3.60553
-3.61375
-3.62351
-3.63518
-3.64828
-3.66449
-3.6834
-3.70552
-3.71789
-3.71811
-3.71839
-3.71906
-3.71987
-3.72101
-3.72245
-3.72421
-3.72634
-3.72889
-3.73193
-3.73553
-3.73981
-3.74488
-3.75086
-3.75785
-3.76618
-3.77591
-3.78741
-3.80073
-3.81645
-3.83479
-3.8561
-3.86798
-3.86824
-3.86854
-3.86928
-3.87009
-3.87134
-3.87285
-3.87471
-3.87694
-3.8796
-3.88274
-3.88642
-3.8908
-3.89596
-3.90204
-3.90882
-3.91713
-3.92675
-3.93794
-3.95091
-3.96598
-3.98342
-4.00354
-4.01785
-4.01815
-4.01847
-4.01925
-4.02
-4.02139
-4.02291
-4.02483
-4.0271
-4.02981
-4.03299
-4.03661
-4.04099
-4.04608
-4.05201
-4.05883
-4.06682
-4.07607
-4.08677
-4.09909
-4.11326
-4.12953
-4.14815
-4.1675
-4.16781
-4.16814
-4.16889
-4.16979
-4.17109
-4.17265
-4.17456
-4.17682
-4.17949
-4.18261
-4.18622
-4.19046
-4.19538
-4.20108
-4.20766
-4.21525
-4.22399
-4.23402
-4.24549
-4.25857
-4.27343
-4.29029
-4.31692
-4.31723
-4.31758
-4.31833
-4.31926
-4.32052
-4.32205
-4.32391
-4.32612
-4.3287
-4.33171
-4.33519
-4.33923
-4.3439
-4.34928
-4.35546
-4.36255
-4.37065
-4.37987
-4.39033
-4.40216
-4.41548
-4.43042
-4.46612
-4.46642
-4.46679
-4.46753
-4.46845
-4.46967
-4.47114
-4.47292
-4.47501
-4.47746
-4.4803
-4.48357
-4.48735
-4.49169
-4.49667
-4.50235
-4.50883
-4.51619
-4.5245
-4.53386
-4.54434
-4.55604
-4.569
-4.61513
-4.61541
-4.61579
-4.61651
-4.61739
-4.61856
-4.61993
-4.62159
-4.62353
-4.62579
-4.62841
-4.63142
-4.63488
-4.63882
-4.64332
-4.64844
-4.65423
-4.66077
-4.66811
-4.67631
-4.68542
-4.69548
-4.70651
-4.76396
-4.76421
-4.76459
-4.76528
-4.76609
-4.76718
-4.76844
-4.76996
-4.77171
-4.77375
-4.7761
-4.77879
-4.78187
-4.78537
-4.78933
-4.79382
-4.79888
-4.80455
-4.81088
-4.81791
-4.82565
-4.83413
-4.84333
-4.91263
-4.91284
-4.91321
-4.91384
-4.91458
-4.91557
-4.91667
-4.91804
-4.91957
-4.92135
-4.9234
-4.92573
-4.92839
-4.9314
-4.93479
-4.93861
-4.9429
-4.94768
-4.953
-4.95886
-4.96528
-4.97226
-4.97978
-5.06119
-5.06135
-5.0617
-5.06225
-5.06288
-5.06375
-5.06468
-5.0659
-5.06716
-5.06866
-5.07037
-5.07232
-5.07452
-5.07701
-5.0798
-5.08293
-5.08643
-5.09032
-5.09463
-5.09936
-5.10451
-5.11009
-5.11609
-5.20969
-5.2098
-5.21009
-5.21055
-5.21106
-5.21178
-5.21247
-5.21365
-5.2145
-5.21572
-5.21708
-5.21862
-5.22034
-5.22228
-5.22446
-5.22688
-5.22959
-5.2326
-5.23592
-5.23955
-5.2435
-5.24777
-5.25235
-5.35813
-5.35818
-5.35841
-5.35876
-5.35914
-5.35968
-5.36022
-5.36099
-5.36171
-5.36258
-5.36356
-5.36466
-5.3659
-5.36729
-5.36884
-5.37056
-5.37248
-5.37461
-5.37696
-5.37953
-5.38232
-5.38534
-5.38858
-5.50651
-5.50653
-5.50667
-5.50689
-5.50713
-5.50747
-5.50781
-5.50826
-5.50872
-5.50925
-5.50985
-5.51051
-5.51126
-5.51208
-5.51301
-5.51403
-5.51518
-5.51644
-5.51784
-5.51937
-5.52103
-5.52283
-5.52476
-5.65487
-5.65486
-5.65492
-5.65499
-5.65508
-5.65519
-5.65532
-5.65547
-5.65563
-5.65581
-5.65601
-5.65623
-5.65648
-5.65675
-5.65706
-5.6574
-5.65777
-5.65819
-5.65865
-5.65915
-5.6597
-5.66029
-5.66094
494.278
555.768
618.419
703.892
386.741
435.479
479.228
508.607
261.309
304.848
341.38
329.808
142.6
183.103
217.983
172.042
36.0175
64.0581
89.182
61.8509
0.52355
3.94911
8.61066
42.9379
0.154666
0.0935955
-0.382834
37.8624
-0.0130553
0.0807779
1.47816
19.2489
-0.372272
-0.199643
-0.44632
-0.878223
-0.683369
-0.392441
-0.415613
-0.599455
-0.891114
-0.644161
-0.589369
-0.424265
-1.03897
-0.88402
-0.792284
-0.888208
-1.18971
-1.08474
-0.993519
-0.904815
-1.3422
-1.26581
-1.2035
-1.11487
-1.48519
-1.44065
-1.39831
-1.353
-1.64298
-1.62398
-1.60491
-1.5874
-1.82079
-1.81926
-1.82529
-1.84258
-2.00884
-2.02178
-2.04963
-2.10342
-2.19882
-2.22424
-2.2691
-2.34733
-2.38735
-2.42218
-2.47841
-2.56834
-2.57248
-2.61381
-2.67614
-2.76842
-2.75304
-2.79841
-2.86283
-2.95278
-2.92862
-2.9762
-3.04037
-3.12515
-3.09926
-3.14766
-3.2105
-3.28924
-3.26511
-3.31363
-3.37462
-3.44815
-3.42654
-3.47459
-3.53383
-3.60395
-3.58374
-3.6309
-3.68869
-3.75729
-3.73689
-3.78267
-3.83901
-3.90733
-3.88618
-3.92993
-3.98419
-4.05173
-4.0318
-4.07264
-4.12341
-4.18726
-4.17408
-4.2111
-4.25664
-4.31339
-4.31351
-4.34604
-4.38512
-4.43256
-4.45072
-4.4785
-4.51078
-4.54841
-4.58639
-4.60963
-4.63575
-4.66524
-4.72114
-4.74034
-4.7615
-4.78536
-4.85544
-4.87118
-4.88841
-4.90796
-4.98963
-5.00237
-5.0163
-5.03224
-5.12391
-5.13403
-5.1451
-5.15781
-5.25832
-5.26607
-5.27457
-5.28424
-5.39281
-5.3983
-5.40436
-5.41109
-5.52729
-5.53059
-5.53422
-5.53819
-5.66178
-5.66288
-5.66406
-5.66541
795.839
824.94
628.8
366.404
222.803
162.496
122.27
145.178
214.968
296.178
320.266
325.921
330.066
335.458
341.384
345.485
345.04
340.994
616.554
480.4
410.039
262.622
103.539
76.7446
57.0012
54.5961
59.4253
95.7664
226.019
311.542
329.819
338.437
336.051
337.539
341.721
352.558
347.594
490.824
215.338
93.4999
54.5283
47.7052
47.7089
49.2945
51.149
54.3284
59.691
173.195
291.633
329.883
332.911
335.756
337.017
339.688
353.141
325.219
453.168
65.1032
44.9511
44.8218
45.49
46.4738
48.019
51.1605
54.3852
62.7828
210.352
291.669
320.213
331.442
337.173
339.888
338.367
325.612
341.305
471.371
44.8105
43.5568
43.6867
43.7201
44.253
44.8588
48.0958
56.1296
103.982
249.736
302.918
321.185
332.7
339.166
342.599
343.109
341.816
368.507
494.842
42.7659
42.3557
41.4786
41.2545
42.1867
43.3091
42.5134
66.8228
163.637
252.46
291.222
313.873
330.649
340.717
344.496
344.512
342.453
368.68
519.169
41.1983
40.1418
38.3051
37.6942
38.6859
40.0185
43.8286
64.0999
113.532
180.738
254.769
308.311
316.199
317.322
324.611
336.141
342.738
386.516
541.503
38.8382
39.7934
37.7592
36.7242
36.0069
32.5665
26.8995
24.8454
48.4276
120.049
176.622
191.803
153.77
135.35
167.728
237.014
301.238
363.78
498.893
37.687
48.3206
44.6609
41.0181
35.5068
19.0424
-3.4545
-17.9916
32.2542
120.067
113.22
53.5524
-14.4033
-21.7831
-24.9975
-16.0859
105.895
240.903
329.576
31.1093
56.3755
52.7701
48.2224
39.8769
16.4208
-25.5746
14.4886
133.901
126.84
65.2925
8.07107
-15.1928
-23.7549
-30.8852
-31.5426
1.3397
103.409
188.671
10.938
54.9476
55.327
49.6969
42.9489
30.1304
16.5704
108.876
153.818
111.74
34.9356
-25.3954
-30.6478
-15.2467
-15.258
-5.09139
24.9561
101.881
150.75
-0.731706
19.6615
47.0712
46.5841
43.4625
38.5182
87.7875
117.796
54.5955
41.2626
-1.17103
-57.3116
-60.8881
-33.3517
-13.5339
10.5478
50.0871
142.164
166.565
-0.851486
1.53622
13.897
35.616
42.9973
54.7568
70.8554
20.3409
8.78187
4.38186
-4.05792
-38.4389
-80.5029
-68.8449
-34.1339
6.06706
74.1328
148.482
168.227
-1.02715
-1.20373
0.478275
15.3611
33.3711
37.2898
6.14518
-0.962073
-1.87183
-2.77306
-5.28733
-17.2354
-36.6521
-49.0674
-7.52781
54.5516
116.44
164.653
169.094
-1.28347
-1.23658
-1.0935
0.583328
4.75452
-0.729144
-4.32363
-4.33067
-4.2298
-4.63556
-5.13791
-6.58192
-9.57333
-1.14038
35.8255
94.5151
150.185
178.251
149.611
-1.58388
-1.59176
-1.72223
-2.47961
-3.81479
-4.84135
-5.17167
-5.20004
-5.22983
-5.36471
-5.53267
-5.80656
-6.01467
-6.05132
-4.09088
10.0388
53.3231
114.468
118.927
-1.89825
-2.01192
-2.34026
-3.05423
-3.98824
-4.77087
-5.21725
-5.50754
-5.69524
-5.71726
-5.79904
-5.93726
-5.92645
-5.59035
-4.72012
-2.12881
8.47772
35.5235
79.8494
-2.20408
-2.35482
-2.65168
-3.1638
-3.82598
-4.46601
-4.9743
-5.39421
-5.67747
-5.80749
-5.91976
-6.03717
-6.03608
-5.71606
-5.01615
-3.78625
-1.0273
6.188
46.2152
-2.46883
-2.61679
-2.84773
-3.19973
-3.64491
-4.12489
-4.59091
-5.02492
-5.38654
-5.64255
-5.81918
-5.93656
-5.90962
-5.6626
-5.08426
-4.25711
-3.35682
-2.1607
19.2476
-2.69142
-2.8253
-3.00854
-3.25325
-3.55585
-3.89905
-4.25887
-4.61579
-4.94612
-5.22468
-5.44533
-5.5526
-5.48466
-5.24023
-4.80987
-4.29695
-3.822
-3.82636
4.46414
-2.88399
-3.0002
-3.14733
-3.32847
-3.54153
-3.77994
-4.03227
-4.28653
-4.52656
-4.72747
-4.87031
-4.93795
-4.83876
-4.58558
-4.21659
-3.89393
-3.63979
-3.78094
-1.88421
-3.05583
-3.15317
-3.26945
-3.40541
-3.5588
-3.72583
-3.90105
-4.07602
-4.23638
-4.35737
-4.41338
-4.38055
-4.26226
-4.01513
-3.67739
-3.44431
-3.18117
-3.17225
-2.12135
-3.21454
-3.29422
-3.38424
-3.48472
-3.59515
-3.71465
-3.84075
-3.96589
-4.07698
-4.14853
-4.15752
-4.08745
-3.92991
-3.68084
-3.36831
-3.18798
-2.87889
-2.77263
-1.52076
-3.36643
-3.43129
-3.49992
-3.57207
-3.64949
-3.73444
-3.82862
-3.92798
-4.0114
-4.05427
-4.03687
-3.9496
-3.78402
-3.55606
-3.29075
-3.15514
-2.983
-2.66293
-1.0287
-3.51629
-3.57025
-3.62301
-3.67326
-3.72328
-3.7817
-3.85498
-3.93857
-4.00691
-4.03071
-3.99514
-3.90313
-3.76372
-3.57244
-3.3592
-3.23963
-3.30847
-2.93121
-1.90282
-3.66724
-3.71556
-3.76009
-3.79786
-3.83301
-3.87616
-3.93785
-4.01553
-4.0751
-4.07821
-4.01865
-3.91252
-3.77982
-3.62226
-3.48336
-3.35618
-3.72006
-3.25449
-2.30827
-3.82029
-3.86973
-3.91704
-3.95951
-3.99302
-4.03256
-4.10007
-4.18197
-4.23214
-4.20499
-4.10973
-3.97461
-3.83435
-3.68684
-3.59606
-3.63616
-4.25804
-3.83687
-2.61555
-3.97398
-4.03133
-4.08669
-4.14333
-4.18275
-4.23419
-4.32119
-4.41838
-4.46627
-4.41521
-4.26126
-4.07736
-3.90224
-3.71557
-3.5473
-3.50466
-3.74288
-3.92698
-0.907074
-4.12312
-4.19079
-4.26374
-4.31732
-4.36492
-4.44079
-4.55642
-4.66803
-4.70671
-4.62357
-4.4297
-4.1986
-3.96727
-3.69537
-3.33898
-3.05634
-2.75511
-3.23231
1.06758
-4.25759
-4.32417
-4.39478
-4.45461
-4.51796
-4.62078
-4.75518
-4.86318
-4.88753
-4.7885
-4.58801
-4.33578
-4.05311
-3.672
-3.18357
-2.86466
-2.60517
-3.33142
0.186327
-4.37609
-4.43533
-4.49935
-4.56156
-4.63958
-4.75936
-4.89068
-4.9775
-4.98869
-4.90718
-4.73809
-4.51336
-4.2157
-3.79016
-3.33712
-3.37158
-3.1037
-4.46021
-3.08473
-4.48352
-4.53213
-4.58847
-4.65227
-4.7432
-4.87078
-4.98543
-5.05338
-5.06736
-5.01815
-4.91435
-4.78464
-4.58995
-4.26558
-3.95121
-3.76296
-4.14473
-5.32019
-4.98127
-4.58807
-4.62667
-4.67623
-4.74234
-4.84445
-4.97483
-5.07552
-5.13741
-5.16495
-5.1583
-5.15587
-5.20466
-5.20489
-5.10595
-4.88376
-5.20324
-5.30425
-5.44316
-3.41611
-4.69609
-4.72715
-4.77168
-4.83902
-4.94719
-5.07502
-5.17094
-5.24532
-5.29842
-5.34042
-5.44689
-5.69188
-5.97849
-5.98004
-5.75292
-5.6051
-5.59535
-5.63488
-5.55156
-4.81005
-4.83568
-4.87518
-4.9396
-5.04464
-5.16437
-5.2623
-5.35274
-5.43444
-5.52153
-5.71724
-6.15213
-6.74116
-6.69334
-6.34975
-6.03065
-5.79645
-5.70474
-5.0075
-4.92821
-4.94959
-4.98272
-5.03901
-5.13355
-5.23145
-5.32515
-5.41931
-5.511
-5.61849
-5.8434
-6.32057
-6.96512
-6.9037
-6.51594
-6.23935
-6.01597
-5.98289
-6.15776
-5.04877
-5.0662
-5.09207
-5.13752
-5.20749
-5.281
-5.35508
-5.43251
-5.50781
-5.59913
-5.786
-6.16549
-6.57698
-6.63545
-6.40653
-6.23216
-6.09296
-6.18408
-5.62437
-5.17086
-5.18409
-5.20243
-5.23471
-5.27965
-5.32637
-5.37639
-5.42726
-5.47451
-5.53072
-5.64678
-5.87271
-6.11558
-6.19603
-6.14084
-6.03956
-6.01122
-6.30341
-6.12027
-5.29382
-5.30284
-5.31507
-5.33448
-5.35985
-5.38647
-5.41595
-5.44659
-5.47349
-5.50206
-5.56127
-5.6741
-5.8207
-5.89925
-5.90243
-5.78507
-5.81587
-5.92508
-5.25212
-5.41741
-5.42293
-5.42984
-5.43964
-5.45202
-5.46534
-5.48103
-5.50087
-5.51968
-5.53764
-5.56862
-5.6272
-5.70233
-5.74944
-5.77075
-5.68167
-5.71685
-5.77535
-4.72953
-5.5416
-5.54425
-5.5471
-5.55064
-5.5552
-5.56049
-5.56705
-5.57786
-5.59129
-5.60275
-5.61671
-5.64472
-5.66776
-5.69793
-5.74033
-5.73443
-5.67361
-5.63914
-3.70837
-5.66635
-5.66689
-5.66726
-5.66743
-5.66743
-5.66787
-5.67035
-5.67603
-5.68305
-5.68477
-5.68301
-5.67875
-5.68374
-5.7386
-5.81903
-5.87216
-5.84711
-5.9638
-5.48052
)
;

boundaryField
{
    leftWall
    {
        type            calculated;
        value           nonuniform List<scalar> 
50
(
532.8
473.766
414.116
354.467
295.435
237.25
179.764
122.688
50.1984
0.78137
0.276842
0.132899
-0.0340735
-0.216454
-0.383368
-0.543961
-0.701544
-0.855467
-1.00736
-1.15818
-1.30848
-1.45858
-1.60867
-1.75886
-1.90919
-2.05967
-2.21031
-2.36108
-2.51195
-2.66288
-2.81384
-2.96477
-3.11565
-3.26644
-3.4171
-3.56759
-3.71789
-3.86798
-4.01785
-4.1675
-4.31692
-4.46612
-4.61513
-4.76396
-4.91263
-5.06119
-5.20969
-5.35813
-5.50651
-5.65487
)
;
    }
    rightWall
    {
        type            calculated;
        value           nonuniform List<scalar> 
50
(
1822.21
1761.04
1674.41
1545.8
1373.41
1177.33
980.052
802.293
616.554
490.824
453.168
471.371
494.842
519.169
541.503
498.893
329.576
188.671
150.75
166.565
168.227
169.094
149.611
118.927
79.8494
46.2152
19.2476
4.46414
-1.88421
-2.12135
-1.52076
-1.0287
-1.90282
-2.30827
-2.61555
-0.907074
1.06758
0.186327
-3.08473
-4.98127
-3.41611
-5.55156
-5.0075
-6.15776
-5.62437
-6.12027
-5.25212
-4.72953
-3.70837
-5.48052
)
;
    }
    lowerWall
    {
        type            calculated;
        value           nonuniform List<scalar> 
62
(
562.229
559.979
560.836
565.671
575.762
590.993
608.899
626.486
643.731
662.214
682.895
705.667
729.953
755.166
780.686
805.839
829.042
848.927
862.674
866.824
866.856
889.88
928.68
899.282
834.429
771.65
716.405
667.836
620.681
572.11
524.519
556.869
618.326
680.98
766.472
800.608
791.924
769.552
763.655
803.409
853.022
880.469
880.546
800.843
780.084
778.585
794.731
634.734
471.86
405.413
390.446
392.288
395.739
401.928
428.327
471.645
498.132
601.654
1006.98
1652.41
1965.92
1846.1
)
;
    }
    atmosphere
    {
        type            calculated;
        value           nonuniform List<scalar> 
46
(
-5.72904
-5.72904
-5.72904
-5.72904
-5.72904
-5.72904
-5.72904
-5.72904
-5.72904
-5.72904
-5.72904
-5.72904
-5.72904
-5.72904
-5.72904
-5.72904
-5.72904
-5.72904
-5.72904
-5.72904
-5.72904
-5.72904
-5.72904
-5.72904
-5.72904
-5.72904
-5.72904
-5.72904
-5.72904
-5.72904
-5.72904
-5.72904
-5.72904
-5.72904
-5.72939
-5.73037
-5.72948
-5.72926
-5.75233
-5.74919
-5.81948
-5.92304
-5.96666
-6.00228
-6.43322
-5.72904
)
;
    }
    defaultFaces
    {
        type            empty;
    }
}


// ************************************************************************* //
