/*--------------------------------*- C++ -*----------------------------------*\
| =========                 |                                                 |
| \\      /  F ield         | OpenFOAM: The Open Source CFD Toolbox           |
|  \\    /   O peration     | Version:  2206                                  |
|   \\  /    A nd           | Website:  www.openfoam.com                      |
|    \\/     M anipulation  |                                                 |
\*---------------------------------------------------------------------------*/
FoamFile
{
    version     2.0;
    format      ascii;
    arch        "LSB;label=32;scalar=64";
    class       volScalarField;
    location    "0.6";
    object      p_rgh;
}
// * * * * * * * * * * * * * * * * * * * * * * * * * * * * * * * * * * * * * //

dimensions      [1 -1 -2 0 0 0 0];

internalField   nonuniform List<scalar> 
2268
(
562.229
559.979
560.836
565.671
575.762
590.993
608.899
626.486
643.731
662.214
682.895
705.667
729.953
755.166
780.686
805.839
829.042
848.927
862.674
866.824
866.856
889.88
928.68
562.054
559.152
559.764
564.42
574.334
589.649
607.986
625.815
643.147
661.652
682.288
705.054
729.425
754.723
780.297
805.522
829.209
849.979
865.601
866.543
857.859
876.527
922.624
561.263
557.723
557.984
562.08
571.518
586.953
606.128
624.499
642.024
660.617
681.385
704.289
728.769
754.124
779.626
804.589
828.264
849.609
867.422
869.758
853.313
862.527
918.635
560.473
556.056
555.58
558.76
567.344
582.988
603.28
622.627
640.48
659.172
680.085
703.184
727.897
753.482
779.106
804.065
827.693
849.241
867.082
878.354
858.343
864.123
921.687
560.299
554.503
552.828
554.611
562.14
578.23
599.846
620.335
638.579
657.384
678.455
701.776
726.823
752.807
778.747
803.96
827.851
849.789
868.398
882.126
878.267
894.234
932.662
560.973
553.734
549.953
550.756
557.643
574.179
596.626
617.704
636.214
655.166
676.497
700.074
725.558
752.114
778.528
804.148
828.523
851.13
871.004
887.607
900.226
912.741
944.399
562.346
553.978
549.199
548.937
555.375
571.762
593.765
614.49
633.135
652.254
674.061
698.051
724.161
751.505
778.506
804.62
829.579
852.944
874.081
892.923
909.843
926.507
954.664
564.128
551.69
540.055
536.086
542.722
563.502
589.613
609.844
629.15
649.079
671.07
695.499
722.407
750.837
778.612
805.348
831.019
855.217
877.484
898.027
917.705
938.541
965.925
800.843
780.084
778.585
794.731
634.734
471.86
405.413
390.446
392.288
395.739
401.928
428.327
471.645
498.132
601.654
1006.98
1652.41
1965.92
1846.1
798.416
767.106
779.893
727.177
443.745
346.108
339.881
351.81
359.294
366.737
374.495
388.245
417.059
445.387
528.117
846.212
1454.23
1885.29
1842.61
792.185
748.565
778.208
523.318
341.658
324.722
323.661
323.119
322.014
321.696
324.026
331.723
348.446
360.461
388.38
508.872
1026.32
1709.06
1810.36
795.652
767.974
688.708
383.464
328.029
323.306
323.637
323.391
322.132
321.083
321.608
327.652
344.004
362.354
371.633
387.12
619.187
1430.73
1736.13
828.101
847.184
615.264
365.697
328.574
323.227
323.775
323.662
322.293
320.885
320.958
322.826
330.585
356.941
374.988
386.949
461.365
1112.32
1618.12
874.379
900.826
625.521
390.398
340.559
327.71
323.937
323.472
322.248
321.122
321.211
322.488
326.039
348.192
372.743
389.505
409.697
787.379
1476.42
903.91
884.094
676.257
470.4
437.565
451.87
424.503
351.74
320.502
321.054
321.241
322.768
326.193
334.948
360.948
378.132
396.996
642.732
1333.5
995.643
949.747
784.165
675.71
731.566
687.568
626.057
407.673
306.141
319.378
321.731
323.847
327.33
340.782
353.977
361.659
382.397
596.002
1210.07
450.955
360.591
290.816
277.376
298.734
355.277
443.192
518.594
576.392
626.777
665.033
690.611
719.734
750.467
779.37
806.936
833.628
859.145
883.081
905.938
928.268
951.89
981.129
1.44006
1.20851
1.04028
4.12734
40.0334
78.996
102.275
123.533
166.749
242.807
344.985
460.464
595.124
732.992
781.158
810.518
838.883
865.989
891.402
916.617
943.001
969.954
1001.62
1.0607
1.01065
0.941666
0.896275
0.948524
0.942124
0.918027
0.90126
0.867893
0.814845
1.29717
29.3573
98.8421
223.199
403.652
573.405
734.782
871.376
900.954
926.487
953.68
980.169
1008.63
1.04195
1.02022
0.904461
0.826163
0.878418
0.880467
0.851959
0.833497
0.837675
0.861599
0.884277
0.856557
0.873399
1.00672
23.3987
74.2021
141.459
284.612
489.609
651.236
846.713
965.48
1008.71
1.00017
0.989022
0.930328
0.905978
0.926915
0.889732
0.861506
0.840916
0.82389
0.812987
0.818117
0.828634
0.862329
0.911583
0.957931
1.01181
1.03075
0.978976
1.13373
36.0728
132.571
307.128
469.311
0.942986
0.933686
0.910069
0.877089
0.867747
0.864877
0.852424
0.842194
0.83679
0.83623
0.847436
0.852021
0.865209
0.953281
0.990945
1.0201
0.966679
0.981361
1.04106
1.0917
1.13229
1.15022
1.20514
0.901267
0.893976
0.881509
0.864498
0.858395
0.847724
0.838467
0.831251
0.827581
0.828594
0.837916
0.844606
0.860556
0.918801
0.943736
0.935337
0.961028
0.982534
1.0408
1.12917
1.25297
1.3366
1.43219
0.865868
0.86021
0.854509
0.844044
0.837781
0.830511
0.824462
0.820566
0.819774
0.822554
0.828737
0.837235
0.849543
0.864577
0.888368
0.913438
0.937643
0.963564
1.00892
1.08219
1.4729
1.53546
1.58316
0.83348
0.830704
0.827508
0.820963
0.816205
0.811605
0.808102
0.805954
0.805868
0.808872
0.815669
0.824804
0.838826
0.853023
0.87234
0.893629
0.914829
0.93752
0.960991
1.07746
1.42094
1.43211
1.45151
0.804751
0.80323
0.801529
0.797588
0.794582
0.791748
0.78997
0.789473
0.790873
0.794714
0.801171
0.810266
0.821898
0.835843
0.85286
0.871473
0.890871
0.914446
0.939423
0.942921
1.15796
1.35737
1.32445
0.778047
0.777004
0.776282
0.774032
0.772395
0.771037
0.770629
0.771443
0.773836
0.778108
0.784525
0.793167
0.804028
0.816882
0.83254
0.848668
0.866036
0.887439
0.898801
0.907735
1.08302
1.33057
1.12136
0.752424
0.751811
0.751439
0.750344
0.74968
0.749382
0.749931
0.751567
0.754562
0.759174
0.765581
0.773793
0.783756
0.795977
0.809324
0.82391
0.839474
0.854973
0.868256
0.874844
1.09154
1.34468
1.33213
0.727323
0.727033
0.726881
0.726494
0.726491
0.72689
0.728053
0.73018
0.733499
0.738185
0.744365
0.752062
0.761298
0.772263
0.784147
0.797276
0.811235
0.825102
0.837056
0.842162
0.875602
1.26787
1.3533
0.702416
0.702368
0.702352
0.702399
0.70282
0.703649
0.705163
0.707518
0.710895
0.715394
0.721174
0.728221
0.736511
0.745957
0.756875
0.768666
0.781182
0.793917
0.805558
0.812078
0.807153
0.792763
0.846974
0.677517
0.677614
0.677703
0.678002
0.678667
0.67973
0.681393
0.683777
0.687018
0.691211
0.696441
0.702728
0.710075
0.71846
0.727896
0.738173
0.749133
0.760611
0.771801
0.780396
0.783077
0.782055
0.784345
0.652524
0.652697
0.652848
0.653296
0.654069
0.655217
0.656877
0.659145
0.662118
0.66587
0.67046
0.675912
0.682227
0.689379
0.697325
0.705942
0.715077
0.724478
0.73379
0.741935
0.748554
0.753455
0.758552
0.627389
0.627582
0.627786
0.628283
0.629069
0.630188
0.631733
0.633773
0.636378
0.6396
0.643479
0.64803
0.653243
0.65908
0.66548
0.672338
0.679517
0.686822
0.693924
0.700249
0.705423
0.709321
0.712349
0.602099
0.602278
0.602509
0.602988
0.603717
0.604724
0.606069
0.607801
0.609966
0.612597
0.615716
0.619322
0.62339
0.627869
0.63268
0.637712
0.642822
0.647803
0.652336
0.655995
0.658342
0.658919
0.657427
0.576657
0.576807
0.577033
0.577451
0.57807
0.578905
0.579992
0.581361
0.583039
0.585043
0.587375
0.590019
0.59293
0.596044
0.599261
0.602453
0.605451
0.60803
0.609855
0.6105
0.609491
0.606248
0.600091
0.551083
0.5512
0.55139
0.551716
0.552191
0.552814
0.553605
0.554579
0.555747
0.55711
0.558654
0.560343
0.562119
0.563897
0.565563
0.566967
0.567915
0.568152
0.567327
0.564997
0.560638
0.553587
0.543043
0.525409
0.525489
0.525624
0.525838
0.526146
0.526533
0.527008
0.527574
0.528228
0.528957
0.529733
0.530502
0.531191
0.5317
0.531899
0.53162
0.53065
0.528708
0.525428
0.520356
0.512951
0.502518
0.488199
0.499672
0.499711
0.499779
0.49987
0.499999
0.500141
0.500297
0.500457
0.50061
0.500731
0.500777
0.500683
0.50036
0.499695
0.498544
0.496729
0.494025
0.490134
0.484679
0.477207
0.467174
0.453914
0.43661
0.473911
0.47391
0.473905
0.473869
0.473818
0.473718
0.473562
0.473333
0.473012
0.472564
0.471934
0.47105
0.469813
0.468095
0.465741
0.462568
0.458345
0.45277
0.445466
0.435992
0.423826
0.40834
0.388804
0.448168
0.448127
0.448048
0.447888
0.447664
0.447333
0.446883
0.446293
0.445536
0.444569
0.443332
0.441744
0.439702
0.437069
0.433681
0.429347
0.42384
0.416864
0.408056
0.396992
0.383186
0.366066
0.344984
0.422481
0.422405
0.422256
0.42198
0.421595
0.42105
0.420333
0.419417
0.418271
0.416846
0.415077
0.412882
0.410154
0.406751
0.402505
0.397222
0.390676
0.382587
0.372621
0.360381
0.345402
0.327181
0.305144
0.39689
0.396781
0.396572
0.396189
0.395659
0.394924
0.39397
0.392772
0.391292
0.389477
0.38726
0.384557
0.381262
0.377234
0.372308
0.366289
0.358952
0.350038
0.339247
0.326232
0.310517
0.291668
0.269186
0.371429
0.371288
0.371033
0.370554
0.369899
0.369
0.367847
0.366412
0.364655
0.362524
0.359947
0.356839
0.353095
0.348584
0.343149
0.3366
0.328712
0.319247
0.307932
0.294562
0.278495
0.259437
0.236922
0.346132
0.345953
0.345673
0.345104
0.344351
0.343317
0.342003
0.340378
0.338406
0.33603
0.333181
0.329774
0.325703
0.320846
0.315063
0.308185
0.299974
0.290207
0.278536
0.265436
0.24923
0.230315
0.208195
0.321025
0.320801
0.32052
0.319858
0.319046
0.317903
0.316468
0.314702
0.312571
0.310022
0.306987
0.303386
0.299106
0.294036
0.288057
0.281066
0.272735
0.263001
0.251504
0.23818
0.222459
0.204125
0.182815
0.296131
0.295869
0.295571
0.294826
0.294018
0.292772
0.29126
0.2894
0.287166
0.284509
0.28137
0.277686
0.273311
0.26815
0.262067
0.255285
0.246976
0.237357
0.226167
0.213197
0.198132
0.180693
0.160565
0.27145
0.271155
0.27083
0.270053
0.269303
0.267915
0.266388
0.264477
0.262198
0.259496
0.256313
0.252694
0.248313
0.243219
0.237295
0.230477
0.222487
0.213231
0.202534
0.190215
0.17604
0.159776
0.141156
0.246999
0.24669
0.246355
0.245604
0.244705
0.243405
0.241846
0.23994
0.237674
0.235004
0.231886
0.228274
0.224038
0.219115
0.213414
0.206841
0.199246
0.190505
0.180476
0.16901
0.155931
0.141064
0.124207
0.222775
0.222465
0.222114
0.221364
0.220434
0.219168
0.217639
0.215777
0.213576
0.210992
0.207984
0.2045
0.200461
0.195791
0.19041
0.18423
0.177143
0.169045
0.159824
0.149362
0.137532
0.124214
0.109276
0.198768
0.198464
0.198096
0.197355
0.196438
0.195212
0.193747
0.19197
0.189879
0.187431
0.184591
0.181312
0.177535
0.173195
0.168221
0.162535
0.156055
0.148701
0.140389
0.131031
0.120543
0.10885
0.0958823
0.174956
0.17467
0.174289
0.173568
0.172691
0.171524
0.170152
0.16849
0.166551
0.164287
0.161669
0.158656
0.155204
0.151258
0.14676
0.141645
0.135849
0.129311
0.121973
0.113775
0.104664
0.0946037
0.0835712
0.151317
0.151066
0.150683
0.149997
0.149181
0.148092
0.14684
0.145318
0.143565
0.141527
0.139177
0.136483
0.133407
0.129909
0.125941
0.121454
0.116396
0.110723
0.104393
0.0973693
0.089625
0.0811502
0.0719431
0.127837
0.127628
0.127256
0.126626
0.125892
0.124903
0.123796
0.122429
0.120898
0.119118
0.117074
0.114739
0.112083
0.109074
0.105679
0.101858
0.0975724
0.0927862
0.0874725
0.0816108
0.0751909
0.0682142
0.060688
0.104473
0.104311
0.103964
0.103411
0.102781
0.101914
0.100984
0.0997631
0.0985028
0.0970073
0.0952958
0.0933488
0.0911446
0.088659
0.0858659
0.0827364
0.0792383
0.0753445
0.0710371
0.0663067
0.0611496
0.0555708
0.0495759
0.0811731
0.0810621
0.0807649
0.0803066
0.0797986
0.0790785
0.0783903
0.0772104
0.0763575
0.0751424
0.0737802
0.0722437
0.0705154
0.0685754
0.0664024
0.0639743
0.0612672
0.0582612
0.0549439
0.0513086
0.047355
0.0430881
0.0385085
0.0579271
0.0578706
0.0576435
0.0572976
0.056916
0.0563722
0.0558321
0.0550597
0.0543458
0.0534775
0.0524942
0.0513893
0.0501503
0.0487638
0.0472164
0.0454919
0.0435716
0.0414421
0.0390944
0.0365234
0.0337294
0.030714
0.0274761
0.034739
0.0347228
0.0345747
0.0343597
0.0341189
0.0337796
0.0334336
0.0329833
0.0325253
0.0319972
0.0314025
0.0307363
0.0299927
0.0291636
0.028241
0.027214
0.026071
0.0248052
0.0234101
0.0218804
0.0202173
0.0184203
0.0164861
0.0115705
0.0115816
0.011523
0.0114486
0.0113657
0.0112493
0.0111266
0.0109752
0.0108153
0.0106361
0.0104358
0.0102124
0.00996458
0.00968865
0.00938273
0.00904409
0.00866828
0.00825252
0.00779473
0.0072915
0.006743
0.00614948
0.00550725
1027.69
1088.9
1151.57
1237.21
1045.39
1094.13
1137.88
1167.26
1045.16
1088.69
1125.22
1113.64
1049.48
1091.8
1126.93
1080.25
591.489
686.299
992.982
732.847
2.34173
81.5334
304.07
509.305
1.56565
1.52669
87.0687
557.07
1.56087
1.66607
81.8041
521.579
1.52809
1.53407
1.30086
177.867
1.40916
1.46108
1.44966
148.489
1.099
1.34596
1.35527
43.3284
1.38212
1.29933
1.22427
3.21501
1.31393
1.01447
1.06162
1.20473
0.88816
0.895505
0.96072
1.06779
0.801039
0.845586
0.888222
0.936527
0.768405
0.787414
0.806524
0.824632
0.715794
0.717328
0.711303
0.694104
0.65294
0.639996
0.612155
0.55837
0.588149
0.562732
0.517876
0.439665
0.524817
0.489987
0.433753
0.343874
0.464878
0.423549
0.361218
0.268983
0.409515
0.364138
0.299721
0.209781
0.359122
0.311549
0.247375
0.162599
0.313684
0.265283
0.202437
0.123704
0.273021
0.224507
0.16352
0.089985
0.236789
0.188739
0.129498
0.0593828
0.204787
0.15763
0.0998371
0.031238
0.176825
0.131047
0.0747053
0.00639034
0.152736
0.108986
0.0547206
-0.0128156
0.13231
0.091466
0.0406954
-0.0231563
0.115221
0.0782022
0.0326662
-0.0240851
0.100984
0.0684601
0.0293801
-0.0180595
0.0889679
0.0611905
0.0289118
-0.00871924
0.078492
0.0552608
0.0291411
-0.000352511
0.0689412
0.049738
0.0285797
0.00472255
0.0598356
0.0440934
0.0268662
0.00731764
0.0508434
0.038102
0.0241704
0.00823195
0.041752
0.0316389
0.0205671
0.00785078
0.0325347
0.0247938
0.0162884
0.00662093
0.0232481
0.0177513
0.0116984
0.00495981
0.0139565
0.0106574
0.0070257
0.00305789
0.00466304
0.00356349
0.00238293
0.0010279
1319.58
1317.75
1129.39
875.448
731.847
657.691
612.282
633.248
646.73
452.567
322.491
327.072
341.449
354.053
350.348
349.045
355.615
640.78
1109.21
1139.04
1068.11
904.184
677.952
416.787
117.528
57.1085
86.4596
427.628
546.703
391.218
336.495
370.314
356.998
341.222
345.76
356.953
829.822
1098.73
982.525
657.822
175.681
49.2056
49.2756
51.5111
53.8668
57.3107
132.275
484.378
397.237
387.407
366.743
344.398
340.566
343.624
422.881
1003.42
1174.96
374.762
46.7255
46.5633
47.1851
48.2139
51.3124
54.5872
57.9354
125.879
438.554
425.395
383.33
346.168
341.214
343.896
342.389
592.576
1160.31
1306.49
46.8293
45.5187
46.1229
45.6341
46.4754
49.519
57.838
89.1664
241.565
377.415
333.58
326.333
337.298
343.726
347.175
347.658
538.993
1240.46
1443.69
44.9389
44.5029
43.6249
43.4011
44.3331
47.1909
83.4979
114.073
205.505
264.321
301.748
321.916
336.42
345.871
349.626
349.642
431.4
1242.3
1580.06
64.6311
42.5373
40.6842
40.0719
41.12
42.9261
57.3353
91.7942
142.084
216.042
379.836
571.369
701.03
772.253
700.403
392.578
421.637
1280.03
1711.54
183.112
42.5483
40.3882
39.3965
39.1644
37.4581
36.8507
59.9184
365.124
796.832
1144.11
1381.33
1336.12
1315.17
1327.61
862.558
553.452
1317.09
1774.14
473.392
111.923
47.6604
44.3629
40.2672
28.1598
37.5309
568.264
1133.49
1436.28
1429.51
1370.47
1285.89
873.239
619.583
723.146
536.859
913.914
1714.54
502.35
188.358
56.4636
52.4126
45.5668
27.9076
344.03
1217.58
1523.82
1547.72
1489.62
1431.72
931.35
41.6782
35.3247
36.9542
142.64
1039.37
1725.74
401.116
297.991
59.8331
55.8162
50.8976
148.455
944.493
1369.13
1329.38
1268.73
1562.96
1494.48
1137.15
252.496
55.0371
69.349
375.293
1583.56
1803.76
151.278
318.631
201.989
55.0906
95.9809
379.818
1322.31
1236.28
231.233
258.08
1448.12
1580.69
1602.66
1472.69
359.607
219.722
941.456
1911.09
1935.49
14.2532
161.461
187.507
151.017
219.369
1005.23
1386.27
237.036
11.4745
9.52975
299.608
1187.24
1716.59
1744.76
1794.46
1639.3
1709.13
2032.7
2053.06
1.3135
4.50883
57.7381
170.505
506.927
978.283
395.074
1.83789
0.393071
-0.173356
-0.893869
-4.17519
863.486
1848.24
1968.29
2041.72
2112.11
2164.19
2145.2
1.04119
1.48574
4.84076
131.281
269.962
135.357
-1.36146
-1.95975
-1.90357
-2.29831
-2.72744
-4.0208
-5.58955
530.562
1671.26
2015.08
2161.46
2283.81
2210.73
0.835678
0.919943
4.51155
17.7614
5.64564
-0.156994
-2.67091
-2.75984
-2.78087
-2.9111
-3.07423
-3.33537
-3.49476
-3.63017
-0.945953
281.89
619.044
1273.41
2100.81
0.639857
0.553332
0.627878
0.017991
-0.65287
-1.86057
-2.64762
-2.94748
-3.11777
-3.12279
-3.20407
-3.33595
-3.3218
-2.94184
-1.9184
1.21489
14.1311
167.858
1282.65
0.457902
0.309247
0.0258555
-0.425683
-1.04074
-1.69633
-2.23795
-2.7241
-2.97296
-2.99563
-3.18388
-3.27673
-3.27616
-2.93907
-2.17303
-0.760744
2.70113
111.922
839.121
0.318179
0.170442
-0.0591278
-0.404393
-0.843215
-1.3259
-1.76692
-2.23341
-2.59904
-2.7103
-2.87134
-3.07563
-3.07376
-2.3866
-1.45896
-0.663291
0.254342
78.695
761.088
0.220851
0.0869795
-0.0962008
-0.340379
-0.6424
-0.985879
-1.34605
-1.70328
-2.03381
-2.24387
-2.36507
-2.56362
-2.56852
-1.67575
-0.808742
-0.705585
-0.300192
22.8432
392.25
0.153479
0.0372645
-0.109924
-0.291059
-0.504093
-0.742512
-0.994859
-1.24908
-1.4891
-1.68995
-1.78087
-1.86001
-1.79993
-1.51349
-0.506594
-0.856218
-0.57745
15.5401
72.2807
0.106758
0.00943412
-0.10686
-0.242853
-0.396244
-0.563262
-0.738477
-0.913385
-1.07372
-1.19471
-1.25071
-1.21701
-1.09901
-0.852299
-0.514542
-0.28144
7.2038
30.3182
150.528
0.0732049
-0.00647095
-0.096492
-0.196965
-0.307403
-0.426895
-0.552984
-0.678046
-0.789116
-0.860665
-0.869652
-0.799535
-0.641893
-0.392819
-0.0802771
0.100077
43.4693
42.3822
347.204
0.0465089
-0.0183481
-0.0869745
-0.159127
-0.236547
-0.321495
-0.41566
-0.514971
-0.598349
-0.64089
-0.623269
-0.536086
-0.370754
-0.142812
0.122523
0.258141
52.013
44.49
361.664
0.021851
-0.0321088
-0.0848662
-0.13512
-0.185143
-0.242053
-0.294386
-0.360422
-0.452211
-0.484812
-0.453303
-0.364601
-0.225239
-0.0339544
0.179297
0.298869
53.7828
45.9304
259.535
-0.00391397
-0.052232
-0.0967547
-0.134524
-0.153982
-0.114571
0.177384
0.251852
0.00840777
-0.362497
-0.354118
-0.248712
-0.116097
0.0414434
0.180351
2.60686
55.4673
48.0254
55.1372
-0.0317688
-0.0812019
-0.120833
-0.0949878
-0.111098
-0.061946
0.216393
0.242007
0.191905
0.115862
-0.277476
-0.185245
-0.04539
0.102087
0.192863
28.4349
56.9241
81.9281
368.811
-0.0602607
-0.117607
-0.0361007
-0.0924506
-0.233474
-0.320099
-0.407039
-0.0744184
0.105852
0.156643
-0.0702009
-0.162439
0.0119452
0.198575
0.366865
37.0121
27.7544
174.957
403.314
-0.0842062
-0.151873
-0.14409
-0.256057
-0.32584
-0.401543
-0.517123
-0.380458
0.0113912
0.0947806
-0.190434
-0.159039
0.0720879
0.343978
0.700375
16.5719
20.9941
259.132
418.219
-0.0934782
-0.154906
-0.230667
-0.290502
-0.353847
-0.45647
-0.590725
-0.39562
-0.042133
-0.200044
-0.394132
-0.170893
0.111598
0.492557
0.980953
6.45535
82.0418
298.881
430.268
-0.0867223
-0.145936
-0.210048
-0.272257
-0.347461
-0.469701
-0.590837
-0.559376
-0.392141
-0.532321
-0.434839
-0.222908
0.0743331
0.501536
1.29098
65.798
173.686
161.58
439.783
-0.0690095
-0.117628
-0.173974
-0.237773
-0.312179
-0.447204
-0.564767
-0.622319
-0.628473
-0.48826
-0.49272
-0.368101
-0.16448
0.263184
30.4935
92.0245
72.9064
52.1414
450.028
-0.0483796
-0.0869823
-0.136542
-0.202646
-0.288214
-0.396404
-0.527292
-0.512707
-0.379052
-0.477096
-0.605097
-0.648774
-0.554195
16.1585
36.1311
-0.492203
0.583154
29.1914
457.522
-0.0312081
-0.0622653
-0.106792
-0.174135
-0.277238
-0.366302
-0.404121
-0.311083
-0.366349
-0.552827
-0.760973
-0.968244
6.87755
19.5488
11.4189
-0.849283
-0.842895
6.96693
81.438
-0.0199708
-0.0455964
-0.0850966
-0.149439
-0.254462
-0.329854
-0.215573
-0.285724
-0.36778
-0.612766
-0.871853
-0.421053
6.56505
5.98526
-1.46479
-1.15109
-0.916769
-0.825411
-0.0956338
-0.01293
-0.0343125
-0.0674455
-0.123733
-0.21827
-0.221095
-0.125416
-0.21961
-0.311543
-0.541079
-0.888679
-0.423445
3.81772
-1.80024
-1.43085
-1.15367
-1.00755
-0.975679
404.866
-0.00829838
-0.0257314
-0.0515959
-0.0970535
-0.166977
-0.14508
-0.0229419
-0.100306
-0.175844
-0.399732
-0.708771
-0.355048
-0.650349
-0.899481
-0.71391
-1.01276
-0.9722
-1.04933
853.59
-0.00519893
-0.0184293
-0.0367701
-0.0690467
-0.113946
-0.118852
0.0573715
0.0371438
-0.0106053
-0.315855
-0.473656
-0.576471
-0.946078
-1.01685
-0.868495
-0.843121
-0.819074
4.97203
943.622
-0.00295789
-0.0119838
-0.0242105
-0.0436143
-0.0657074
-0.0584901
-0.0396234
0.0260689
-0.069733
-0.210702
-0.270166
-0.382608
-0.527091
-0.595712
-0.611451
-0.49416
-0.525009
20.3525
967.508
-0.00135702
-0.00687559
-0.0137906
-0.0235826
-0.0338438
-0.0357151
-0.0540728
-0.0802028
-0.103114
-0.121356
-0.152358
-0.210898
-0.270856
-0.32082
-0.354002
-0.265618
-0.300801
-0.359299
963.343
-0.000348734
-0.00299843
-0.00585604
-0.0093925
-0.0139323
-0.0192351
-0.025628
-0.0329665
-0.0496917
-0.0612887
-0.0752503
-0.0892303
-0.0859718
-0.116135
-0.194967
-0.193185
-0.132361
-0.097892
249.701
9.75521e-05
-0.000449414
-0.000819587
-0.000984407
-0.000987272
-0.00142843
-0.003901
-0.00923932
-0.0152905
-0.017891
-0.0163491
0.0107338
0.00735466
-0.0720779
-0.152585
-0.205718
-0.180666
-0.297361
0.185918
)
;

boundaryField
{
    leftWall
    {
        type            fixedFluxPressure;
        gradient        uniform 0;
        value           nonuniform List<scalar> 
50
(
562.229
562.054
561.263
560.473
560.299
560.973
562.346
564.128
450.955
1.44006
1.0607
1.04195
1.00017
0.942986
0.901267
0.865868
0.83348
0.804751
0.778047
0.752424
0.727323
0.702416
0.677517
0.652524
0.627389
0.602099
0.576657
0.551083
0.525409
0.499672
0.473911
0.448168
0.422481
0.39689
0.371429
0.346132
0.321025
0.296131
0.27145
0.246999
0.222775
0.198768
0.174956
0.151317
0.127837
0.104473
0.0811731
0.0579271
0.034739
0.0115705
)
;
    }
    rightWall
    {
        type            fixedFluxPressure;
        gradient        uniform 0;
        value           nonuniform List<scalar> 
50
(
1846.1
1842.61
1810.36
1736.13
1618.12
1476.42
1333.5
1210.07
1109.21
1098.73
1174.96
1306.49
1443.69
1580.06
1711.54
1774.14
1714.54
1725.74
1803.76
1935.49
2053.06
2145.2
2210.73
2100.81
1282.65
839.121
761.088
392.25
72.2807
150.528
347.204
361.664
259.535
55.1372
368.811
403.314
418.219
430.268
439.783
450.028
457.522
81.438
-0.0956338
404.866
853.59
943.622
967.508
963.343
249.701
0.185918
)
;
    }
    lowerWall
    {
        type            fixedFluxPressure;
        gradient        uniform 0;
        value           nonuniform List<scalar> 
62
(
562.229
559.979
560.836
565.671
575.762
590.993
608.899
626.486
643.731
662.214
682.895
705.667
729.953
755.166
780.686
805.839
829.042
848.927
862.674
866.824
866.856
889.88
928.68
928.68
922.624
918.635
921.687
932.662
944.399
954.664
965.925
1027.69
1088.9
1151.57
1237.21
800.843
798.416
792.185
795.652
828.101
874.379
903.91
995.643
800.843
780.084
778.585
794.731
634.734
471.86
405.413
390.446
392.288
395.739
401.928
428.327
471.645
498.132
601.654
1006.98
1652.41
1965.92
1846.1
)
;
    }
    atmosphere
    {
        type            totalPressure;
        rho             rho;
        psi             none;
        gamma           1;
        p0              uniform 0;
        value           nonuniform List<scalar> 
46
(
0
0
0
0
0
0
0
0
0
0
0
0
0
0
0
0
0
0
0
0
0
0
0
0
0
0
-6.74879e-07
0
0
0
0
0
0
0
0
0
0
0
0
-0.0201534
-0.0904369
-0.193998
-0.237621
-0.273244
-0.704178
0
)
;
    }
    defaultFaces
    {
        type            empty;
    }
}


// ************************************************************************* //
