/*--------------------------------*- C++ -*----------------------------------*\
| =========                 |                                                 |
| \\      /  F ield         | OpenFOAM: The Open Source CFD Toolbox           |
|  \\    /   O peration     | Version:  2206                                  |
|   \\  /    A nd           | Website:  www.openfoam.com                      |
|    \\/     M anipulation  |                                                 |
\*---------------------------------------------------------------------------*/
FoamFile
{
    version     2.0;
    format      ascii;
    arch        "LSB;label=32;scalar=64";
    class       surfaceScalarField;
    location    "0.6";
    object      phi;
}
// * * * * * * * * * * * * * * * * * * * * * * * * * * * * * * * * * * * * * //

dimensions      [0 3 -1 0 0 0 0];

oriented        oriented;

internalField   nonuniform List<scalar> 
4432
(
-3.23557e-06
3.23557e-06
-5.85064e-06
2.61507e-06
-6.29169e-06
4.41049e-07
-5.31158e-06
-9.80115e-07
-3.00569e-06
-2.30589e-06
5.76003e-07
-3.58169e-06
4.62032e-06
-4.04432e-06
8.04719e-06
-3.42687e-06
1.02218e-05
-2.17456e-06
1.10975e-05
-8.75752e-07
1.08616e-05
2.35895e-07
9.71732e-06
1.14429e-06
7.92666e-06
1.79065e-06
5.59348e-06
2.33319e-06
2.61017e-06
2.9833e-06
-1.22723e-06
3.83741e-06
-6.01773e-06
4.7905e-06
-1.02659e-05
4.24819e-06
-1.35312e-05
3.26532e-06
-1.91645e-05
5.63326e-06
-2.37616e-05
4.5971e-06
-1.68649e-05
-6.89671e-06
-1.68649e-05
-3.77134e-06
7.00691e-06
-5.61378e-06
4.45751e-06
-5.66374e-06
4.91009e-07
-4.85132e-06
-1.79253e-06
-2.82981e-06
-4.32739e-06
5.99612e-07
-7.01112e-06
4.6816e-06
-8.12631e-06
8.17162e-06
-6.91689e-06
1.03624e-05
-4.36534e-06
1.1263e-05
-1.77637e-06
1.12705e-05
2.2843e-07
1.07754e-05
1.6394e-06
9.92517e-06
2.64084e-06
8.81085e-06
3.44753e-06
7.38847e-06
4.40566e-06
5.32009e-06
5.90582e-06
1.98378e-06
8.1268e-06
-3.42517e-06
9.65714e-06
-1.06187e-05
1.04589e-05
-1.66428e-05
1.16573e-05
-1.81639e-05
6.11825e-06
-1.19329e-05
-1.31277e-05
-2.87978e-05
-2.85289e-06
9.8598e-06
-4.20051e-06
5.80513e-06
-4.44888e-06
7.39375e-07
-4.17996e-06
-2.06145e-06
-2.72773e-06
-5.77962e-06
3.98015e-07
-1.01369e-05
4.41603e-06
-1.21443e-05
7.92594e-06
-1.04268e-05
1.00801e-05
-6.51947e-06
1.08767e-05
-2.57303e-06
1.07168e-05
3.88389e-07
9.98194e-06
2.37424e-06
8.98685e-06
3.63591e-06
7.94942e-06
4.48498e-06
7.06145e-06
5.29362e-06
6.4711e-06
6.49619e-06
5.98879e-06
8.60911e-06
4.11705e-06
1.15289e-05
4.31013e-07
1.41449e-05
-4.5233e-06
1.66116e-05
-7.16814e-06
8.76308e-06
-4.63052e-06
-1.56653e-05
-3.34283e-05
-1.48627e-06
1.13461e-05
-2.10259e-06
6.42145e-06
-2.42658e-06
1.06337e-06
-2.40337e-06
-2.08465e-06
-1.2003e-06
-6.98269e-06
1.42476e-06
-1.27619e-05
4.8472e-06
-1.55668e-05
7.83015e-06
-1.34098e-05
9.64549e-06
-8.33481e-06
1.02679e-05
-3.19548e-06
1.00143e-05
6.42005e-07
9.24226e-06
3.1463e-06
8.23645e-06
4.6417e-06
7.20626e-06
5.51519e-06
6.31081e-06
6.18905e-06
5.78924e-06
7.01777e-06
6.09925e-06
8.29909e-06
6.9467e-06
1.06814e-05
7.50553e-06
1.35861e-05
7.53818e-06
1.65789e-05
5.68195e-06
1.06193e-05
3.45071e-06
-1.34341e-05
-2.99776e-05
3.48223e-07
1.09978e-05
1.03415e-06
5.73553e-06
1.26594e-06
8.31571e-07
1.96073e-06
-2.77945e-06
3.49759e-06
-8.51955e-06
5.52217e-06
-1.47865e-05
7.39955e-06
-1.74441e-05
8.75133e-06
-1.47615e-05
9.44221e-06
-9.0257e-06
9.53349e-06
-3.28675e-06
9.1357e-06
1.03978e-06
8.38945e-06
3.89256e-06
7.49873e-06
5.53241e-06
6.6494e-06
6.36452e-06
5.92147e-06
6.91698e-06
5.43351e-06
7.50574e-06
5.56449e-06
8.1681e-06
6.85453e-06
9.3914e-06
9.47345e-06
1.09672e-05
1.2738e-05
1.33144e-05
1.32345e-05
1.01228e-05
8.30809e-06
-8.50768e-06
-2.16695e-05
2.88534e-06
8.11251e-06
5.46061e-06
3.16025e-06
7.36552e-06
-1.07333e-06
9.68684e-06
-5.10077e-06
1.19124e-05
-1.07452e-05
1.27734e-05
-1.56474e-05
1.22184e-05
-1.68891e-05
1.1083e-05
-1.36262e-05
9.94177e-06
-7.88446e-06
8.99699e-06
-2.34196e-06
8.22484e-06
1.81192e-06
7.45032e-06
4.66709e-06
6.69504e-06
6.28768e-06
6.07856e-06
6.98101e-06
5.59631e-06
7.39922e-06
5.30516e-06
7.7969e-06
5.42026e-06
8.05299e-06
6.36113e-06
8.45053e-06
8.62144e-06
8.70685e-06
1.2491e-05
9.44484e-06
1.45017e-05
8.11212e-06
9.96673e-06
-3.97272e-06
-1.17028e-05
5.42042e-06
2.69209e-06
1.06891e-05
-2.10841e-06
1.58339e-05
-6.2182e-06
2.02021e-05
-9.46894e-06
2.19608e-05
-1.25039e-05
2.04528e-05
-1.41394e-05
1.7167e-05
-1.36033e-05
1.38204e-05
-1.02795e-05
1.11111e-05
-5.1752e-06
9.05863e-06
-2.89486e-07
7.64252e-06
3.22802e-06
6.60213e-06
5.70749e-06
5.8827e-06
7.0071e-06
5.51022e-06
7.35351e-06
5.28496e-06
7.62446e-06
5.19027e-06
7.89159e-06
5.43946e-06
7.80378e-06
6.24106e-06
7.64894e-06
7.65088e-06
7.29703e-06
1.04497e-05
6.64598e-06
1.26643e-05
5.89754e-06
9.86226e-06
-1.17067e-06
-1.84053e-06
8.24559e-06
-5.5535e-06
1.78995e-05
-1.17623e-05
2.61813e-05
-1.45e-05
2.95991e-05
-1.28867e-05
2.8019e-05
-1.09237e-05
2.34357e-05
-9.55614e-06
1.86263e-05
-8.79398e-06
1.473e-05
-6.3832e-06
1.18493e-05
-2.29446e-06
9.7549e-06
1.80487e-06
7.96679e-06
5.01613e-06
6.43219e-06
7.24209e-06
5.36958e-06
8.06971e-06
4.96828e-06
7.75482e-06
4.85458e-06
7.73816e-06
4.90151e-06
7.84467e-06
5.34186e-06
7.36342e-06
6.27241e-06
6.71839e-06
7.37504e-06
6.1944e-06
9.02479e-06
4.99623e-06
1.04168e-05
4.5055e-06
8.67291e-06
5.73251e-07
6.83238e-06
8.61968e-05
-8.61967e-05
4.23928e-05
4.38039e-05
-8.27771e-06
5.06705e-05
-7.12649e-05
6.29872e-05
-0.000134818
6.35535e-05
-0.000164019
2.92007e-05
-0.000166365
2.34568e-06
-0.000164563
-1.80147e-06
-0.000163967
-5.96107e-07
-0.0001642
2.32898e-07
-0.000164851
6.50761e-07
-0.000165461
6.10443e-07
-0.000164436
-1.02493e-06
-0.000160698
-3.73799e-06
-0.000152007
-8.69157e-06
-0.000127499
-2.45077e-05
-7.27414e-05
-5.47577e-05
-8.01422e-06
-6.47272e-05
-8.01423e-06
3.43887e-05
-0.000120585
-5.1765e-06
8.33692e-05
-7.32348e-05
0.000118729
-0.000159249
0.000149001
-0.000215068
0.000119373
-0.000219884
3.40165e-05
-0.000211583
-5.956e-06
-0.000208879
-4.50499e-06
-0.000205332
-4.14279e-06
-0.000201924
-3.17596e-06
-0.000198207
-3.0661e-06
-0.000195434
-2.16188e-06
-0.000192222
-4.23717e-06
-0.000185265
-1.06949e-05
-0.000172777
-2.11797e-05
-0.000145449
-5.18355e-05
-9.4613e-05
-0.000105594
-3.13696e-05
-0.000127971
-3.93838e-05
-2.53686e-06
-0.000118048
-3.80228e-05
0.000118855
-0.000117786
0.000198492
-0.000180479
0.000211695
-0.000211982
0.000150876
-0.000226005
4.80396e-05
-0.000242674
1.07121e-05
-0.000257393
1.02142e-05
-0.000255875
-5.66037e-06
-0.000239335
-1.97168e-05
-0.000207531
-3.48694e-05
-0.000185124
-2.45696e-05
-0.000173397
-1.59639e-05
-0.000174289
-9.80227e-06
-0.000167028
-2.84417e-05
-0.000146666
-7.2197e-05
-0.000103109
-0.000149151
-4.57049e-05
-0.000185374
-8.50888e-05
-2.28662e-05
-9.51823e-05
-5.53411e-05
0.00015133
-0.000109699
0.00025285
-0.000119327
0.000221322
-0.000105992
0.000137542
-0.000107981
5.00286e-05
-0.000106125
8.85642e-06
-0.000116838
2.09274e-05
-0.000141294
1.87959e-05
-0.00015306
-7.95138e-06
-0.000138832
-4.90979e-05
-9.41534e-05
-6.92476e-05
-6.94265e-05
-4.06909e-05
-7.45148e-05
-4.71396e-06
-8.11126e-05
-2.18437e-05
-0.00010946
-4.38497e-05
-9.60107e-05
-0.000162601
-5.13069e-05
-0.000230078
-0.000136396
-3.8732e-05
-5.64503e-05
-5.64492e-05
0.000169047
-5.10738e-05
0.000247474
1.56413e-06
0.000168684
5.94127e-05
7.9693e-05
9.75992e-05
1.1842e-05
0.000101466
4.99005e-06
8.18967e-05
4.04965e-05
2.01107e-05
8.05819e-05
-4.90263e-05
6.11861e-05
-8.41647e-05
-1.39602e-05
-6.88555e-05
-8.45567e-05
-3.07303e-05
-7.8816e-05
8.82159e-06
-4.42659e-05
3.11451e-05
-4.41673e-05
-2.43704e-05
1.16657e-05
-7.86623e-05
-0.000108309
-4.84156e-05
-0.000260325
-0.000184811
-4.49609e-05
-1.14894e-05
-3.4954e-05
0.00015904
2.68385e-05
0.000185682
0.000112323
8.31997e-05
0.000185361
6.65542e-06
0.000214574
-1.73716e-05
0.000216962
2.60256e-06
0.000211733
4.57256e-05
0.000185739
0.000106576
0.000115978
0.000130947
9.32956e-06
9.26876e-05
-4.86737e-05
-2.65531e-05
-2.74045e-05
-0.000100085
3.28452e-05
-0.000104516
5.50505e-05
-6.63726e-05
2.70619e-05
3.96542e-05
-5.43433e-05
-2.69034e-05
-4.0199e-05
-0.000274469
-0.00022501
-3.81579e-05
2.66684e-05
-5.5636e-07
0.000121439
6.90733e-05
0.000116052
0.000121495
3.07782e-05
0.000144994
-1.6844e-05
0.000155382
-2.77593e-05
0.000172876
-1.48921e-05
0.00019398
2.46223e-05
0.000208324
9.2232e-05
0.000198957
0.000140314
0.000149118
0.000142526
7.3286e-05
4.92794e-05
3.69595e-05
-6.37581e-05
6.03731e-05
-0.000127929
7.57933e-05
-8.17929e-05
4.85094e-05
6.69381e-05
-2.42926e-05
4.58986e-05
-2.91745e-05
-0.000269587
-0.000254185
-1.78689e-07
2.68471e-05
4.519e-05
7.60699e-05
9.56938e-05
6.55482e-05
0.00011221
1.42621e-05
0.000111121
-1.57552e-05
0.000109423
-2.60609e-05
0.00011432
-1.97896e-05
0.000131974
6.96817e-06
0.000163184
6.10222e-05
0.00019213
0.000111369
0.000186346
0.000148311
0.000150238
8.53869e-05
0.000120615
-3.41349e-05
9.79593e-05
-0.000105273
8.55598e-05
-6.93934e-05
4.71176e-05
0.00010538
-7.34784e-06
0.000100364
-1.78111e-05
-0.000259124
-0.000271996
2.43774e-05
-2.99309e-05
4.29061e-05
-3.0291e-05
4.64781e-05
-1.8072e-05
3.89382e-05
-5.34685e-06
3.2595e-05
-4.58051e-06
2.66996e-05
-3.66077e-06
2.24169e-05
-4.51126e-06
1.93512e-05
-3.31749e-06
1.7962e-05
-9.0532e-07
1.77378e-05
2.02914e-06
1.69475e-05
5.80644e-06
1.46923e-05
9.49725e-06
1.27797e-05
9.98227e-06
1.22569e-05
8.27761e-06
1.14966e-05
8.49846e-06
1.06455e-05
8.69579e-06
1.09789e-05
7.03001e-06
1.27195e-05
4.97782e-06
1.49513e-05
3.96252e-06
1.76188e-05
2.32875e-06
2.11234e-05
1.0009e-06
2.38133e-05
-2.11658e-06
4.02582e-06
2.66198e-05
1.48578e-05
-4.47886e-05
-4.96419e-05
3.42086e-05
-0.000106668
3.89538e-05
-8.67718e-05
-2.52428e-05
-4.44964e-05
-4.68559e-05
-3.20543e-05
-1.61029e-05
-3.01569e-05
-6.40867e-06
-2.72709e-05
-6.20348e-06
-1.91151e-05
-9.06117e-06
-9.52328e-06
-7.56263e-06
-1.1567e-06
-2.56015e-06
6.90218e-06
1.43837e-06
1.30178e-05
3.86662e-06
1.62401e-05
5.05532e-06
1.48622e-05
9.87637e-06
1.17639e-05
1.17941e-05
1.09669e-05
7.82705e-06
1.24223e-05
3.52245e-06
1.42082e-05
2.17656e-06
1.64314e-05
1.05601e-07
1.97112e-05
-2.27893e-06
2.24057e-05
-4.81102e-06
-2.57972e-06
2.90112e-05
-1.77954e-05
-2.69933e-05
-3.46841e-05
5.1097e-05
-4.97841e-05
5.40538e-05
-6.61468e-05
-8.88013e-06
-9.22349e-05
-2.07677e-05
-0.000117403
9.06494e-06
-0.000140354
1.6543e-05
-0.000157134
1.05763e-05
-0.000162192
-4.00258e-06
-0.000148412
-2.13429e-05
-0.000126981
-2.39911e-05
-7.60133e-05
-4.95296e-05
-3.98973e-05
-3.22493e-05
-1.74159e-05
-1.74261e-05
-2.14757e-06
-5.39199e-06
6.57503e-06
3.07146e-06
1.44265e-05
-2.44016e-08
1.8086e-05
-1.37062e-07
1.81288e-05
2.1338e-06
1.78193e-05
4.15067e-07
1.95079e-05
-3.96752e-06
2.11107e-05
-6.41386e-06
-7.5152e-06
2.60462e-05
-3.04159e-05
3.42244e-06
-1.34271e-05
3.41081e-05
-3.85795e-06
4.44847e-05
-1.63834e-05
3.64546e-06
-3.8078e-05
9.27194e-07
-4.81632e-05
1.91504e-05
-5.13271e-05
1.97071e-05
-5.47427e-05
1.39921e-05
-6.70371e-05
8.29181e-06
-9.0534e-05
2.15389e-06
-0.000112155
-2.36976e-06
-0.000134337
-2.73483e-05
-0.000131315
-3.5271e-05
-0.000119495
-2.9246e-05
-8.54104e-05
-3.94771e-05
-5.7764e-05
-2.45749e-05
-4.09086e-05
-1.68799e-05
-1.8536e-05
-2.25096e-05
-3.4426e-06
-1.29596e-05
9.6626e-06
-1.26901e-05
2.06501e-05
-1.4955e-05
2.487e-05
-1.06338e-05
-9.32219e-06
2.6677e-05
-1.67055e-05
2.01278e-05
-3.02361e-06
2.04263e-05
9.23455e-06
3.22266e-05
5.12504e-06
7.75511e-06
-2.06903e-07
6.25933e-06
-1.38236e-07
1.90819e-05
2.59914e-06
1.69698e-05
6.73973e-06
9.85149e-06
1.03308e-05
4.70065e-06
6.95382e-06
5.53075e-06
-1.16205e-05
1.62043e-05
-4.23194e-05
3.35038e-06
-6.4398e-05
-1.31925e-05
-7.13659e-05
-2.22782e-05
-8.29224e-05
-2.79206e-05
-9.45176e-05
-1.29798e-05
-0.0001056
-5.79723e-06
-0.00011371
-1.43997e-05
-0.00010908
-1.75897e-05
-7.10616e-05
-5.07086e-05
-4.3092e-05
-4.29246e-05
-2.63707e-05
-2.73551e-05
-1.34878e-05
-2.22051e-05
-4.84655e-06
2.49743e-05
1.49599e-06
1.40837e-05
1.04041e-05
2.33185e-05
5.11596e-06
1.30434e-05
-2.2176e-06
1.3593e-05
-1.92792e-07
1.70572e-05
-2.31227e-08
1.68002e-05
-2.88522e-06
1.27135e-05
-4.13076e-06
5.94609e-06
8.76331e-07
5.23532e-07
1.06279e-05
6.45266e-06
8.22442e-06
5.75375e-06
-7.99064e-06
3.0225e-06
-1.65986e-05
-1.36703e-05
-1.96043e-05
-2.49149e-05
-1.64905e-05
-1.60936e-05
-1.74775e-05
-4.81014e-06
-2.9134e-05
-2.74326e-06
-4.08347e-05
-5.889e-06
-7.26209e-05
-1.89224e-05
-9.69292e-05
-1.86163e-05
-0.000112546
-1.17383e-05
-6.32127e-06
-0.000119712
-2.63019e-06
2.76045e-05
8.62995e-07
1.05905e-05
5.1952e-06
1.89863e-05
2.84371e-06
1.53949e-05
6.09079e-07
1.58276e-05
6.69635e-07
1.69966e-05
7.34338e-07
1.67354e-05
-4.78185e-07
1.3926e-05
-3.56745e-06
9.03528e-06
-7.98371e-06
4.93973e-06
-6.44475e-06
4.91368e-06
-5.76061e-06
5.06963e-06
-6.16655e-06
3.42847e-06
-8.28451e-06
-1.15523e-05
-1.37969e-05
-1.94024e-05
-1.38155e-05
-1.6075e-05
-7.82223e-06
-1.08034e-05
-3.52787e-07
-1.02127e-05
1.14028e-05
-1.76447e-05
1.40364e-05
-2.1556e-05
2.20766e-05
-2.66565e-05
2.53016e-05
-1.49632e-05
7.38729e-06
1.15931e-05
-1.66338e-06
2.92679e-05
-4.7046e-07
9.39751e-06
1.94752e-06
1.65683e-05
1.53493e-06
1.58074e-05
1.20966e-06
1.61528e-05
1.39298e-06
1.68132e-05
9.76468e-07
1.71519e-05
-7.88003e-07
1.56904e-05
-3.58195e-06
1.18292e-05
-5.63115e-06
6.98895e-06
-4.3359e-06
3.6185e-06
-8.90236e-07
1.62406e-06
3.03821e-06
-4.99874e-07
8.02813e-07
-9.31682e-06
-4.44237e-06
-1.41572e-05
-6.88909e-06
-1.36283e-05
-5.45108e-06
-1.22415e-05
-1.86234e-06
-1.38016e-05
5.15498e-06
-2.46621e-05
2.01989e-05
-3.66e-05
4.13751e-05
-4.78327e-05
6.48634e-05
-3.84514e-05
-7.07209e-07
7.29579e-05
-1.40875e-06
3.06766e-05
-6.80397e-07
8.66907e-06
1.02826e-06
1.48596e-05
1.22003e-06
1.56155e-05
1.4946e-06
1.58782e-05
2.16566e-06
1.6142e-05
2.85873e-06
1.64587e-05
2.90162e-06
1.56475e-05
1.72448e-06
1.30064e-05
-3.90909e-07
9.10441e-06
-1.72896e-06
4.95668e-06
-8.41566e-07
7.3682e-07
1.68224e-06
-3.02355e-06
9.97787e-07
-8.63229e-06
-1.04184e-06
-1.21176e-05
-1.66544e-06
-1.30048e-05
5.66737e-07
-1.44738e-05
6.36445e-06
-1.95995e-05
1.30285e-05
-3.13263e-05
2.25468e-05
-4.61184e-05
3.41443e-05
-5.94302e-05
4.65637e-05
-5.08709e-05
-1.04209e-05
5.62775e-05
-7.00308e-07
3.13768e-05
-3.6674e-07
8.33542e-06
6.90953e-07
1.38018e-05
1.09398e-06
1.52124e-05
1.63681e-06
1.53352e-05
2.49533e-06
1.52834e-05
3.63479e-06
1.53191e-05
4.51231e-06
1.47699e-05
4.62496e-06
1.28937e-05
4.17412e-06
9.55534e-06
3.70102e-06
5.42991e-06
3.232e-06
1.20597e-06
2.88865e-06
-2.68009e-06
1.05328e-06
-6.79689e-06
-1.21189e-06
-9.85246e-06
-2.50685e-06
-1.17099e-05
-1.60461e-06
-1.53762e-05
1.78872e-06
-2.29929e-05
5.54879e-06
-3.50865e-05
8.46563e-06
-4.90354e-05
1.06834e-05
-6.1648e-05
1.36398e-05
-5.38273e-05
-1.51e-05
1.83191e-05
-7.15203e-08
3.14483e-05
-4.38594e-08
8.3077e-06
5.62822e-07
1.3195e-05
9.46606e-07
1.48285e-05
1.4638e-06
1.48179e-05
2.20726e-06
1.45398e-05
3.27248e-06
1.42538e-05
4.43003e-06
1.36122e-05
5.24057e-06
1.20832e-05
5.35287e-06
9.44307e-06
4.72694e-06
6.05592e-06
3.54447e-06
2.3885e-06
1.94622e-06
-1.0818e-06
-3.94941e-07
-4.45575e-06
-2.88838e-06
-7.3591e-06
-4.5067e-06
-1.00917e-05
-5.23703e-06
-1.4646e-05
-5.7101e-06
-2.252e-05
-7.38962e-06
-3.34071e-05
-1.20245e-05
-4.44006e-05
-2.01988e-05
-5.34738e-05
-2.83881e-05
-4.5638e-05
-1.20316e-05
-3.14565e-05
3.5339e-07
3.10949e-05
1.59989e-07
8.50108e-06
4.63426e-07
1.28915e-05
7.46289e-07
1.45455e-05
1.1137e-06
1.44503e-05
1.61102e-06
1.40423e-05
2.32483e-06
1.35398e-05
3.17217e-06
1.27648e-05
3.80532e-06
1.14499e-05
3.85203e-06
9.39634e-06
3.14523e-06
6.76273e-06
1.67856e-06
3.85519e-06
-4.02893e-07
9.99634e-07
-3.00792e-06
-1.85075e-06
-5.67537e-06
-4.69169e-06
-8.02057e-06
-7.74659e-06
-1.06733e-05
-1.19934e-05
-1.46523e-05
-1.85411e-05
-2.0865e-05
-2.71946e-05
-2.99609e-05
-3.53048e-05
-4.33547e-05
-4.008e-05
-5.64278e-05
-3.25649e-05
-5.59621e-06
-6.28633e-05
5.50738e-07
3.05441e-05
2.62161e-07
8.78969e-06
3.42675e-07
1.2811e-05
4.90888e-07
1.43973e-05
6.88749e-07
1.42524e-05
9.26793e-07
1.38041e-05
1.23785e-06
1.32286e-05
1.5806e-06
1.24219e-05
1.76404e-06
1.12663e-05
1.49177e-06
9.66853e-06
5.79519e-07
7.67494e-06
-1.00343e-06
5.43811e-06
-3.15662e-06
3.15281e-06
-5.73905e-06
7.31684e-07
-8.64206e-06
-1.78867e-06
-1.18089e-05
-4.57975e-06
-1.58692e-05
-7.9332e-06
-2.18178e-05
-1.25926e-05
-3.02277e-05
-1.87848e-05
-4.07371e-05
-2.47954e-05
-5.40438e-05
-2.67735e-05
-6.75474e-05
-1.90614e-05
2.3722e-06
-7.55159e-05
5.49381e-07
2.99948e-05
2.74665e-07
9.06447e-06
1.93395e-07
1.28923e-05
2.04633e-07
1.4386e-05
2.4257e-07
1.42143e-05
2.69097e-07
1.37774e-05
2.65969e-07
1.32315e-05
1.97073e-07
1.24906e-05
-4.48228e-08
1.15081e-05
-6.29271e-07
1.02529e-05
-1.70431e-06
8.74994e-06
-3.32188e-06
7.05566e-06
-5.43329e-06
5.26422e-06
-8.06496e-06
3.36341e-06
-1.12233e-05
1.36977e-06
-1.5052e-05
-7.51014e-07
-1.99706e-05
-3.01463e-06
-2.68427e-05
-5.72056e-06
-3.64953e-05
-9.13228e-06
-4.89667e-05
-1.23241e-05
-6.35973e-05
-1.21431e-05
-7.8931e-05
-3.72774e-06
1.33113e-05
-8.98703e-05
4.66721e-07
2.95281e-05
2.09934e-07
9.32131e-06
7.23742e-09
1.3095e-05
-9.18421e-08
1.4485e-05
-1.84797e-07
1.43071e-05
-3.16837e-07
1.39092e-05
-5.23114e-07
1.34375e-05
-8.49324e-07
1.28166e-05
-1.3635e-06
1.20221e-05
-2.16307e-06
1.10524e-05
-3.33667e-06
9.92354e-06
-4.95018e-06
8.66918e-06
-7.026e-06
7.34011e-06
-9.63917e-06
5.9767e-06
-1.28916e-05
4.62228e-06
-1.69398e-05
3.29728e-06
-2.20001e-05
2.0457e-06
-2.8694e-05
9.7338e-07
-3.80703e-05
2.43879e-07
-5.06343e-05
2.39725e-07
-6.53334e-05
2.55584e-06
-7.92218e-05
1.01606e-05
2.3489e-05
-8.93998e-05
3.62408e-07
2.91657e-05
9.07776e-08
9.59297e-06
-1.78006e-07
1.33638e-05
-3.68398e-07
1.46753e-05
-5.61373e-07
1.44999e-05
-8.13246e-07
1.41609e-05
-1.15154e-06
1.37757e-05
-1.62304e-06
1.3288e-05
-2.28225e-06
1.26813e-05
-3.19023e-06
1.19604e-05
-4.41005e-06
1.11434e-05
-6.00535e-06
1.02645e-05
-8.0276e-06
9.36247e-06
-1.05433e-05
8.49251e-06
-1.36387e-05
7.71787e-06
-1.74544e-05
7.11294e-06
-2.21876e-05
6.7789e-06
-2.81159e-05
6.90175e-06
-3.56149e-05
7.74284e-06
-4.50876e-05
9.71229e-06
-5.62749e-05
1.3743e-05
-6.72419e-05
2.11274e-05
3.18205e-05
-7.55736e-05
2.6379e-07
2.8902e-05
-4.52292e-08
9.90199e-06
-3.63334e-07
1.36818e-05
-6.16975e-07
1.49288e-05
-8.90964e-07
1.47738e-05
-1.22931e-06
1.44991e-05
-1.65568e-06
1.4202e-05
-2.2091e-06
1.38414e-05
-2.93598e-06
1.34082e-05
-3.88579e-06
1.29103e-05
-5.11174e-06
1.23694e-05
-6.66602e-06
1.18189e-05
-8.60205e-06
1.12986e-05
-1.09775e-05
1.08681e-05
-1.38555e-05
1.0596e-05
-1.7324e-05
1.05816e-05
-2.15153e-05
1.09702e-05
-2.65416e-05
1.19282e-05
-3.24749e-05
1.36761e-05
-3.93604e-05
1.65978e-05
-4.69534e-05
2.13359e-05
-5.41463e-05
2.83202e-05
3.72808e-05
-5.96068e-05
1.82594e-07
2.87194e-05
-1.6361e-07
1.02482e-05
-5.24019e-07
1.40422e-05
-8.25278e-07
1.523e-05
-1.15635e-06
1.51048e-05
-1.55444e-06
1.48972e-05
-2.03901e-06
1.46866e-05
-2.63972e-06
1.44422e-05
-3.39362e-06
1.41622e-05
-4.34377e-06
1.38605e-05
-5.5334e-06
1.35591e-05
-7.00454e-06
1.32901e-05
-8.80225e-06
1.30965e-05
-1.09693e-05
1.30353e-05
-1.35544e-05
1.31812e-05
-1.66046e-05
1.3632e-05
-2.01595e-05
1.45252e-05
-2.42623e-05
1.60311e-05
-2.89051e-05
1.83189e-05
-3.39698e-05
2.16623e-05
-3.89774e-05
2.63435e-05
-4.32773e-05
3.262e-05
4.0312e-05
-4.63084e-05
1.1946e-07
2.85999e-05
-2.68151e-07
1.06357e-05
-6.54282e-07
1.44282e-05
-9.86288e-07
1.55619e-05
-1.35371e-06
1.54722e-05
-1.78645e-06
1.53299e-05
-2.30099e-06
1.52012e-05
-2.92018e-06
1.50615e-05
-3.6732e-06
1.49154e-05
-4.59112e-06
1.47785e-05
-5.70929e-06
1.46773e-05
-7.05853e-06
1.46394e-05
-8.67236e-06
1.47104e-05
-1.05778e-05
1.49408e-05
-1.27985e-05
1.5402e-05
-1.53535e-05
1.6187e-05
-1.82495e-05
1.74213e-05
-2.14678e-05
1.92494e-05
-2.49641e-05
2.18151e-05
-2.85617e-05
2.526e-05
-3.19142e-05
2.96959e-05
-3.45051e-05
3.52108e-05
4.17603e-05
-3.59535e-05
7.35965e-08
2.85263e-05
-3.50619e-07
1.10599e-05
-7.50422e-07
1.4828e-05
-1.09899e-06
1.59105e-05
-1.48395e-06
1.58571e-05
-1.93011e-06
1.57762e-05
-2.44975e-06
1.5721e-05
-3.06105e-06
1.5673e-05
-3.78505e-06
1.56395e-05
-4.64562e-06
1.56392e-05
-5.66496e-06
1.56967e-05
-6.86851e-06
1.58431e-05
-8.2757e-06
1.61176e-05
-9.90178e-06
1.65669e-05
-1.17551e-05
1.72554e-05
-1.3834e-05
1.8266e-05
-1.61156e-05
1.9703e-05
-1.85521e-05
2.16861e-05
-2.10622e-05
2.43252e-05
-2.34936e-05
2.76914e-05
-2.55933e-05
3.17956e-05
-2.70066e-05
3.66241e-05
4.21645e-05
-2.74108e-05
4.41594e-08
2.84821e-05
-4.07849e-07
1.15119e-05
-8.11387e-07
1.52315e-05
-1.16428e-06
1.62634e-05
-1.55177e-06
1.62446e-05
-1.99346e-06
1.62179e-05
-2.49913e-06
1.62268e-05
-3.08143e-06
1.62554e-05
-3.75553e-06
1.63137e-05
-4.53734e-06
1.6421e-05
-5.44271e-06
1.66021e-05
-6.4866e-06
1.6887e-05
-7.67948e-06
1.73105e-05
-9.02591e-06
1.79134e-05
-1.05215e-05
1.87511e-05
-1.21496e-05
1.98941e-05
-1.3872e-05
2.14255e-05
-1.5631e-05
2.34451e-05
-1.73342e-05
2.60284e-05
-1.88468e-05
2.9204e-05
-1.99821e-05
3.29311e-05
-2.0487e-05
3.71292e-05
4.17789e-05
-2.01014e-05
2.92954e-08
2.84528e-05
-4.40267e-07
1.19814e-05
-8.38967e-07
1.56302e-05
-1.18549e-06
1.66098e-05
-1.56292e-06
1.66221e-05
-1.98666e-06
1.66417e-05
-2.46272e-06
1.67029e-05
-3.00026e-06
1.6793e-05
-3.60955e-06
1.6923e-05
-4.30088e-06
1.71124e-05
-5.08299e-06
1.73843e-05
-5.96259e-06
1.77666e-05
-6.94291e-06
1.82908e-05
-8.02106e-06
1.89915e-05
-9.17976e-06
1.99097e-05
-1.04001e-05
2.11144e-05
-1.16311e-05
2.26566e-05
-1.28177e-05
2.46317e-05
-1.38643e-05
2.7075e-05
-1.46577e-05
2.99976e-05
-1.50512e-05
3.33247e-05
-1.48692e-05
3.69473e-05
4.08067e-05
-1.38967e-05
2.56025e-08
2.84272e-05
-4.49871e-07
1.24569e-05
-8.34713e-07
1.6015e-05
-1.16626e-06
1.69413e-05
-1.52409e-06
1.69799e-05
-1.91937e-06
1.7037e-05
-2.35545e-06
1.71391e-05
-2.83822e-06
1.72758e-05
-3.3738e-06
1.74586e-05
-3.96734e-06
1.7706e-05
-4.62243e-06
1.80395e-05
-5.33934e-06
1.84835e-05
-6.11615e-06
1.90676e-05
-6.94214e-06
1.98175e-05
-7.80283e-06
2.07705e-05
-8.65998e-06
2.19716e-05
-9.47692e-06
2.34735e-05
-1.01822e-05
2.53372e-05
-1.07021e-05
2.75949e-05
-1.0933e-05
3.02286e-05
-1.07709e-05
3.31629e-05
-1.00807e-05
3.62572e-05
3.94365e-05
-8.7104e-06
3.01461e-08
2.8397e-05
-4.37104e-07
1.2924e-05
-7.99912e-07
1.63777e-05
-1.10977e-06
1.72511e-05
-1.43999e-06
1.731e-05
-1.79935e-06
1.73964e-05
-2.18843e-06
1.75282e-05
-2.61029e-06
1.76977e-05
-3.0678e-06
1.79161e-05
-3.56243e-06
1.82007e-05
-4.09273e-06
1.85698e-05
-4.65656e-06
1.90474e-05
-5.24366e-06
1.96547e-05
-5.84465e-06
2.04184e-05
-6.43755e-06
2.13634e-05
-6.98417e-06
2.25183e-05
-7.44437e-06
2.39337e-05
-7.76129e-06
2.56542e-05
-7.86116e-06
2.76951e-05
-7.66552e-06
3.00331e-05
-7.08659e-06
3.25839e-05
-6.03765e-06
3.52083e-05
3.78099e-05
-4.4108e-06
4.07532e-08
2.83562e-05
-4.02328e-07
1.3367e-05
-7.34247e-07
1.67094e-05
-1.01699e-06
1.75337e-05
-1.31475e-06
1.76076e-05
-1.63306e-06
1.77147e-05
-1.97125e-06
1.78664e-05
-2.32968e-06
1.80561e-05
-2.70904e-06
1.82955e-05
-3.1069e-06
1.85987e-05
-3.52053e-06
1.89835e-05
-3.94129e-06
1.94681e-05
-4.36008e-06
2.00734e-05
-4.75988e-06
2.08182e-05
-5.11809e-06
2.17216e-05
-5.40513e-06
2.28055e-05
-5.57523e-06
2.41041e-05
-5.57376e-06
2.56527e-05
-5.34289e-06
2.74642e-05
-4.82121e-06
2.95117e-05
-3.94216e-06
3.17048e-05
-2.63916e-06
3.39053e-05
3.60299e-05
-8.59104e-07
5.82754e-08
2.82979e-05
-3.45522e-07
1.37706e-05
-6.38517e-07
1.70022e-05
-8.89689e-07
1.77847e-05
-1.15069e-06
1.78686e-05
-1.42515e-06
1.79892e-05
-1.71126e-06
1.81525e-05
-2.00757e-06
1.83524e-05
-2.31149e-06
1.85995e-05
-2.61996e-06
1.89073e-05
-2.92636e-06
1.929e-05
-3.22082e-06
1.97626e-05
-3.48949e-06
2.03422e-05
-3.71771e-06
2.10466e-05
-3.88056e-06
2.18847e-05
-3.94989e-06
2.28749e-05
-3.88066e-06
2.40351e-05
-3.62897e-06
2.54012e-05
-3.14449e-06
2.69797e-05
-2.37134e-06
2.87385e-05
-1.27017e-06
3.06036e-05
2.09845e-07
3.24253e-05
3.41415e-05
2.09835e-06
8.66894e-08
2.82111e-05
-2.67891e-07
1.4125e-05
-5.14901e-07
1.72491e-05
-7.31708e-07
1.80014e-05
-9.52057e-07
1.80889e-05
-1.18032e-06
1.82175e-05
-1.41357e-06
1.83857e-05
-1.65032e-06
1.85892e-05
-1.88372e-06
1.88331e-05
-2.1115e-06
1.91353e-05
-2.32324e-06
1.95019e-05
-2.50806e-06
1.99476e-05
-2.65255e-06
2.04868e-05
-2.73588e-06
2.11301e-05
-2.73787e-06
2.18869e-05
-2.62813e-06
2.27654e-05
-2.37426e-06
2.37813e-05
-1.92842e-06
2.49555e-05
-1.2498e-06
2.63011e-05
-2.90268e-07
2.77788e-05
9.81461e-07
2.93317e-05
2.5815e-06
3.08253e-05
3.22102e-05
4.51277e-06
1.32064e-07
2.8079e-05
-1.72366e-07
1.44293e-05
-3.69831e-07
1.74465e-05
-5.50248e-07
1.81818e-05
-7.26289e-07
1.82649e-05
-9.06723e-07
1.83978e-05
-1.087e-06
1.8566e-05
-1.26324e-06
1.87655e-05
-1.43395e-06
1.9004e-05
-1.58755e-06
1.92891e-05
-1.71603e-06
1.96306e-05
-1.80845e-06
2.00402e-05
-1.84854e-06
2.05272e-05
-1.81402e-06
2.10958e-05
-1.68917e-06
2.17622e-05
-1.44388e-06
2.25203e-05
-1.04522e-06
2.33826e-05
-4.5031e-07
2.43606e-05
3.83044e-07
2.54678e-05
1.46726e-06
2.66945e-05
2.84521e-06
2.79538e-05
4.54205e-06
2.91286e-05
3.02056e-05
6.54644e-06
1.97135e-07
2.78818e-05
-6.2296e-08
1.46888e-05
-2.1322e-07
1.75973e-05
-3.57016e-07
1.83255e-05
-4.84304e-07
1.83922e-05
-6.15875e-07
1.85294e-05
-7.4124e-07
1.86914e-05
-8.60082e-07
1.88844e-05
-9.66026e-07
1.91102e-05
-1.04959e-06
1.9373e-05
-1.1029e-06
1.96842e-05
-1.11473e-06
2.00523e-05
-1.06583e-06
2.04785e-05
-9.40728e-07
2.09709e-05
-7.15452e-07
2.15371e-05
-3.65976e-07
2.21709e-05
1.37637e-07
2.2879e-05
8.32557e-07
2.36656e-05
1.74926e-06
2.45512e-05
2.92946e-06
2.55142e-05
4.40035e-06
2.64829e-05
6.17495e-06
2.73539e-05
2.8123e-05
8.25739e-06
2.83107e-07
2.75986e-05
5.64038e-08
1.49154e-05
-6.13623e-08
1.77151e-05
-1.63914e-07
1.84281e-05
-2.3848e-07
1.84669e-05
-3.22975e-07
1.86139e-05
-3.93074e-07
1.87616e-05
-4.50224e-07
1.89418e-05
-4.8978e-07
1.91501e-05
-5.06201e-07
1.93898e-05
-4.89285e-07
1.96676e-05
-4.23276e-07
1.99866e-05
-2.94286e-07
2.03498e-05
-8.90077e-08
2.07658e-05
2.24553e-07
2.12237e-05
6.53124e-07
2.17424e-05
1.2324e-06
2.22997e-05
1.98541e-06
2.29125e-05
2.9634e-06
2.35731e-05
4.19696e-06
2.42806e-05
5.72312e-06
2.49567e-05
7.56081e-06
2.55161e-05
2.59265e-05
9.75724e-06
3.82378e-07
2.72162e-05
1.62308e-07
1.51355e-05
7.69064e-08
1.78006e-05
3.23058e-08
1.84727e-05
-1.059e-08
1.85099e-05
-4.85008e-08
1.8652e-05
-6.18587e-08
1.87751e-05
-6.02176e-08
1.89403e-05
-3.46591e-08
1.91249e-05
2.05535e-08
1.93348e-05
1.15152e-07
1.95732e-05
2.58416e-07
1.98435e-05
4.60135e-07
2.01483e-05
7.43412e-07
2.04827e-05
1.11937e-06
2.08479e-05
1.61828e-06
2.12437e-05
2.26311e-06
2.1655e-05
3.08104e-06
2.20946e-05
4.10181e-06
2.25521e-05
5.37417e-06
2.30081e-05
6.93231e-06
2.33985e-05
8.82533e-06
2.36229e-05
2.36461e-05
1.11056e-05
4.90386e-07
2.67259e-05
2.60363e-07
1.53656e-05
1.99074e-07
1.7862e-05
1.79589e-07
1.84924e-05
1.76094e-07
1.85134e-05
1.90963e-07
1.86373e-05
2.20593e-07
1.87455e-05
2.76266e-07
1.88848e-05
3.60344e-07
1.9041e-05
4.79692e-07
1.92156e-05
6.41402e-07
1.94116e-05
8.58189e-07
1.96269e-05
1.14091e-06
1.98657e-05
1.50161e-06
2.01221e-05
1.9579e-06
2.03918e-05
2.52866e-06
2.0673e-05
3.23708e-06
2.09465e-05
4.1142e-06
2.12174e-05
5.18719e-06
2.14789e-05
6.50415e-06
2.1691e-05
8.10191e-06
2.18006e-05
1.00243e-05
2.17003e-05
2.13217e-05
1.23487e-05
6.02853e-07
2.61231e-05
3.41532e-07
1.56271e-05
2.8398e-07
1.79197e-05
2.87938e-07
1.84886e-05
3.12181e-07
1.84891e-05
3.51357e-07
1.85982e-05
4.17669e-07
1.86791e-05
5.12057e-07
1.87905e-05
6.41703e-07
1.89115e-05
8.16063e-07
1.90414e-05
1.03917e-06
1.91886e-05
1.3203e-06
1.9346e-05
1.66891e-06
1.95173e-05
2.1032e-06
1.96879e-05
2.63184e-06
1.98631e-05
3.28074e-06
2.00241e-05
4.06337e-06
2.01637e-05
5.00476e-06
2.02758e-05
6.14635e-06
2.03371e-05
7.51615e-06
2.0321e-05
9.15442e-06
2.01623e-05
1.11041e-05
1.97505e-05
1.90043e-05
1.34216e-05
7.09654e-07
2.54134e-05
3.9898e-07
1.59379e-05
3.29112e-07
1.79896e-05
3.4266e-07
1.84751e-05
3.72203e-07
1.84596e-05
4.2323e-07
1.85471e-05
5.04534e-07
1.85977e-05
6.18551e-07
1.86765e-05
7.74528e-07
1.87556e-05
9.77373e-07
1.88386e-05
1.23573e-06
1.89304e-05
1.55837e-06
1.90235e-05
1.95547e-06
1.91203e-05
2.4365e-06
1.92068e-05
3.02342e-06
1.92762e-05
3.72547e-06
1.9322e-05
4.56701e-06
1.9322e-05
5.57024e-06
1.92724e-05
6.76273e-06
1.91444e-05
8.1818e-06
1.8902e-05
9.85719e-06
1.84868e-05
1.1812e-05
1.77957e-05
1.67264e-05
1.40898e-05
8.04043e-07
2.46094e-05
4.3047e-07
1.63116e-05
3.31512e-07
1.80886e-05
3.40686e-07
1.84659e-05
3.59642e-07
1.84408e-05
4.04513e-07
1.85021e-05
4.7945e-07
1.85227e-05
5.90616e-07
1.85653e-05
7.46904e-07
1.85992e-05
9.51355e-07
1.86342e-05
1.21251e-06
1.86692e-05
1.54127e-06
1.86947e-05
1.94746e-06
1.87141e-05
2.44321e-06
1.8711e-05
3.04113e-06
1.86782e-05
3.76113e-06
1.86019e-05
4.61522e-06
1.84679e-05
5.63153e-06
1.8256e-05
6.83354e-06
1.79424e-05
8.2509e-06
1.74846e-05
9.90903e-06
1.68287e-05
1.18186e-05
1.58861e-05
1.45565e-05
1.39886e-05
8.72561e-07
2.3737e-05
4.40816e-07
1.67434e-05
3.04594e-07
1.8225e-05
2.95816e-07
1.84746e-05
2.88318e-07
1.84484e-05
3.14627e-07
1.84758e-05
3.6934e-07
1.84679e-05
4.59576e-07
1.84749e-05
5.91461e-07
1.84672e-05
7.72668e-07
1.84529e-05
1.0105e-06
1.84313e-05
1.31096e-06
1.83941e-05
1.68508e-06
1.83399e-05
2.14339e-06
1.82526e-05
2.70213e-06
1.81194e-05
3.37627e-06
1.79277e-05
4.18257e-06
1.76615e-05
5.13878e-06
1.72997e-05
6.27078e-06
1.68103e-05
7.59522e-06
1.61602e-05
9.13236e-06
1.52915e-05
1.08794e-05
1.41391e-05
1.26026e-05
1.28331e-05
9.1237e-07
2.28247e-05
4.284e-07
1.72275e-05
2.58192e-07
1.83952e-05
2.2919e-07
1.85035e-05
1.91591e-07
1.8486e-05
1.94181e-07
1.84731e-05
2.18877e-07
1.84431e-05
2.78251e-07
1.84153e-05
3.77463e-07
1.83679e-05
5.17868e-07
1.83124e-05
7.06829e-07
1.82422e-05
9.5158e-07
1.81493e-05
1.26278e-06
1.80285e-05
1.65099e-06
1.78642e-05
2.12908e-06
1.76412e-05
2.70832e-06
1.73482e-05
3.40362e-06
1.69659e-05
4.23244e-06
1.64706e-05
5.20797e-06
1.58347e-05
6.34494e-06
1.50231e-05
7.64639e-06
1.39899e-05
9.10076e-06
1.26847e-05
1.10162e-05
1.06871e-05
8.93927e-07
2.19309e-05
3.98489e-07
1.7723e-05
2.12722e-07
1.85808e-05
1.6541e-07
1.85508e-05
1.03091e-07
1.85483e-05
8.85913e-08