/*--------------------------------*- C++ -*----------------------------------*\
| =========                 |                                                 |
| \\      /  F ield         | OpenFOAM: The Open Source CFD Toolbox           |
|  \\    /   O peration     | Version:  2206                                  |
|   \\  /    A nd           | Website:  www.openfoam.com                      |
|    \\/     M anipulation  |                                                 |
\*---------------------------------------------------------------------------*/
FoamFile
{
    version     2.0;
    format      ascii;
    arch        "LSB;label=32;scalar=64";
    class       volVectorField;
    location    "0.6";
    object      U;
}
// * * * * * * * * * * * * * * * * * * * * * * * * * * * * * * * * * * * * * //

dimensions      [0 1 -1 0 0 0 0];

internalField   nonuniform List<vector> 
2268
(
(-0.0219708 0.00869908 0)
(-0.0573954 0.00793553 0)
(-0.0763243 0.00184614 0)
(-0.0692018 -0.00270567 0)
(-0.0504896 -0.0064533 0)
(-0.0153568 -0.00978636 0)
(0.0297589 -0.010882 0)
(0.073537 -0.00916906 0)
(0.106822 -0.00578147 0)
(0.124853 -0.00227617 0)
(0.12891 0.00104437 0)
(0.120097 0.00380972 0)
(0.102779 0.00593673 0)
(0.0793783 0.00785376 0)
(0.0499615 0.0102991 0)
(0.01189 0.0136017 0)
(-0.0388119 0.0164874 0)
(-0.0976258 0.00919871 0)
(-0.128509 0.00296964 0)
(-0.179075 0.0177605 0)
(-0.284404 0.0153582 0)
(-0.257876 -0.0240908 0)
(-0.0915603 -0.0556426 0)
(-0.0328845 0.0275729 0)
(-0.059436 0.0193431 0)
(-0.0685844 0.00252396 0)
(-0.0625571 -0.00838062 0)
(-0.0472737 -0.0188345 0)
(-0.0147785 -0.0290215 0)
(0.0301885 -0.0329297 0)
(0.0748429 -0.0280065 0)
(0.108519 -0.017863 0)
(0.1266 -0.00740553 0)
(0.130687 0.00118341 0)
(0.127553 0.00768483 0)
(0.119559 0.0123806 0)
(0.1082 0.0162887 0)
(0.0941922 0.0209432 0)
(0.076333 0.027813 0)
(0.0486438 0.0375436 0)
(-0.00214185 0.0403447 0)
(-0.0713276 0.0364905 0)
(-0.162453 0.0450266 0)
(-0.247008 0.0253343 0)
(-0.180466 -0.0638721 0)
(-0.056151 -0.139008 0)
(-0.0286548 0.045779 0)
(-0.0422795 0.0275025 0)
(-0.0529264 0.00270689 0)
(-0.0514089 -0.0115389 0)
(-0.0437924 -0.0281349 0)
(-0.0160013 -0.0467865 0)
(0.027286 -0.0550462 0)
(0.0719881 -0.0470665 0)
(0.105726 -0.0296709 0)
(0.122864 -0.0120203 0)
(0.125785 0.00142829 0)
(0.119783 0.0105921 0)
(0.109279 0.016684 0)
(0.0972087 0.0211492 0)
(0.0856592 0.0259461 0)
(0.0771847 0.0335676 0)
(0.0727191 0.0464185 0)
(0.0665858 0.0601934 0)
(0.0313133 0.070087 0)
(-0.0164311 0.0768564 0)
(-0.103192 0.035416 0)
(-0.0768545 -0.0895106 0)
(-0.00290617 -0.182319 0)
(-0.0188484 0.0581459 0)
(-0.0196976 0.0337163 0)
(-0.0277695 0.00495374 0)
(-0.030344 -0.0116151 0)
(-0.0255865 -0.0354934 0)
(-0.000344953 -0.0637426 0)
(0.0361847 -0.0768765 0)
(0.0733057 -0.0658803 0)
(0.102018 -0.0409964 0)
(0.116552 -0.0160598 0)
(0.118138 0.00261497 0)
(0.111459 0.0148178 0)
(0.100732 0.0223549 0)
(0.0887284 0.027057 0)
(0.0772296 0.0310652 0)
(0.0684791 0.0365624 0)
(0.0654143 0.0459437 0)
(0.0766662 0.0616875 0)
(0.0847162 0.0794868 0)
(0.0962063 0.0960292 0)
(0.0595464 0.0591775 0)
(0.0523522 -0.0757894 0)
(0.0488583 -0.175512 0)
(-0.00593053 0.0627103 0)
(0.01151 0.0330726 0)
(0.0119502 0.00637165 0)
(0.0144615 -0.0133154 0)
(0.0293696 -0.0438812 0)
(0.0550048 -0.0778924 0)
(0.076078 -0.0929143 0)
(0.0919283 -0.0791645 0)
(0.104125 -0.0488584 0)
(0.109696 -0.0183389 0)
(0.10817 0.00432957 0)
(0.101263 0.0190378 0)
(0.0915021 0.0276781 0)
(0.0812516 0.032393 0)
(0.0719668 0.0357425 0)
(0.0647325 0.0395073 0)
(0.0609709 0.0444559 0)
(0.0685959 0.0541705 0)
(0.0896949 0.0679279 0)
(0.131591 0.0861274 0)
(0.149676 0.0640362 0)
(0.131405 -0.0552551 0)
(0.0868367 -0.137436 0)
(0.00842065 0.0550128 0)
(0.0505138 0.0279087 0)
(0.0709046 0.00136945 0)
(0.0930497 -0.0195433 0)
(0.127507 -0.051808 0)
(0.15053 -0.0840984 0)
(0.146827 -0.0958071 0)
(0.131208 -0.0796495 0)
(0.117917 -0.0481292 0)
(0.107338 -0.0166896 0)
(0.098355 0.00714747 0)
(0.0899886 0.0228852 0)
(0.081332 0.0316566 0)
(0.0733039 0.0358507 0)
(0.0668471 0.0386601 0)
(0.0622221 0.041518 0)
(0.0604558 0.044106 0)
(0.0653293 0.048155 0)
(0.0807678 0.0524953 0)
(0.117648 0.0614817 0)
(0.163279 0.0509354 0)
(0.149652 -0.0309393 0)
(0.105829 -0.0886348 0)
(0.0234619 0.032951 0)
(0.0903949 0.00935941 0)
(0.14824 -0.0087582 0)
(0.209083 -0.0291527 0)
(0.252798 -0.0580638 0)
(0.254404 -0.0798264 0)
(0.217613 -0.0832946 0)
(0.173163 -0.0652216 0)
(0.138844 -0.0358905 0)
(0.113163 -0.00890993 0)
(0.094051 0.012689 0)
(0.0807295 0.0283426 0)
(0.071235 0.0372487 0)
(0.0651868 0.0402894 0)
(0.0618491 0.0416121 0)
(0.0598571 0.0426218 0)
(0.0601434 0.0424861 0)
(0.0656477 0.0428729 0)
(0.0772359 0.0419652 0)
(0.0970201 0.0410221 0)
(0.139552 0.0356635 0)
(0.135806 -0.0138594 0)
(0.115286 -0.0430082 0)
(0.038012 -0.004568 0)
(0.137996 -0.0315601 0)
(0.260668 -0.0604898 0)
(0.335913 -0.0695885 0)
(0.34321 -0.0712 0)
(0.301213 -0.0682663 0)
(0.237974 -0.0612948 0)
(0.185145 -0.0437004 0)
(0.148648 -0.0167957 0)
(0.121535 0.00709679 0)
(0.100009 0.0225129 0)
(0.0815171 0.0326516 0)
(0.0668419 0.0367119 0)
(0.0584873 0.0372438 0)
(0.0559301 0.0397193 0)
(0.0556395 0.0427057 0)
(0.0579007 0.0426172 0)
(0.065369 0.040725 0)
(0.0778487 0.0375539 0)
(0.0896181 0.0303903 0)
(0.113947 0.0258957 0)
(0.115266 0.00225893 0)
(0.105751 0.0250766 0)
(0.111201 -0.431461 0)
(1.13656 0.226708 0)
(0.226718 0.15364 0)
(-0.431379 0.186452 0)
(-1.29778 0.178335 0)
(-1.81661 0.091285 0)
(-1.90576 0.0595471 0)
(-1.88107 0.0590539 0)
(-1.87093 0.0729235 0)
(-1.87289 0.0840414 0)
(-1.88158 0.090095 0)
(-1.8841 0.0896106 0)
(-1.88189 0.0792861 0)
(-1.8872 0.0626445 0)
(-1.85124 0.0337991 0)
(-1.626 -0.0352381 0)
(-1.11899 -0.143794 0)
(-0.454627 -0.190136 0)
(0.173554 0.015804 0)
(-0.23813 -0.798783 0)
(0.596836 0.0385606 0)
(-0.4155 0.480231 0)
(-1.41346 0.574868 0)
(-2.37501 0.420166 0)
(-2.53164 0.115872 0)
(-2.40546 -0.0609602 0)
(-2.40856 -0.0870815 0)
(-2.36347 -0.0816153 0)
(-2.32602 -0.0807658 0)
(-2.28807 -0.0821868 0)
(-2.24458 -0.0884266 0)
(-2.20569 -0.105271 0)
(-2.18405 -0.128 0)
(-2.1139 -0.163546 0)
(-1.85762 -0.280244 0)
(-1.34722 -0.50667 0)
(-0.722295 -0.567813 0)
(-0.12057 -0.0966897 0)
(-0.299625 -0.802992 0)
(0.207596 0.652467 0)
(-0.960696 0.915623 0)
(-1.96385 1.01568 0)
(-2.44787 0.712882 0)
(-2.38399 0.199203 0)
(-2.49384 0.0164424 0)
(-2.9539 0.0244416 0)
(-3.00322 0.0321373 0)
(-2.87345 0.035212 0)
(-2.62116 0.0408956 0)
(-2.17505 0.0907137 0)
(-1.84924 0.0876513 0)
(-2.04647 -0.0440105 0)
(-2.10604 -0.190188 0)
(-1.823 -0.510563 0)
(-1.36109 -0.876807 0)
(-0.828789 -0.958866 0)
(-0.301018 -0.35142 0)
(-0.301187 -0.569036 0)
(-0.161231 0.877941 0)
(-1.15226 1.32522 0)
(-1.73204 1.33042 0)
(-1.40342 0.996385 0)
(-0.722411 0.383253 0)
(-1.13026 0.100971 0)
(-1.26285 0.106473 0)
(-1.6663 -0.10327 0)
(-1.84309 -0.276238 0)
(-1.7073 -0.460966 0)
(-1.36352 -0.464411 0)
(-0.592232 -0.238202 0)
(-0.740899 0.0274413 0)
(-1.14398 -0.0552106 0)
(-1.09973 -0.444199 0)
(-1.17369 -1.01684 0)
(-0.776171 -1.2787 0)
(-0.375258 -0.663572 0)
(-0.335102 -0.39062 0)
(-0.487517 1.05567 0)
(-0.994595 1.58668 0)
(-0.746188 1.28204 0)
(0.44944 0.871317 0)
(1.59717 0.237453 0)
(1.37797 0.0735077 0)
(1.03325 0.261814 0)
(0.58278 0.36085 0)
(-0.347201 0.137859 0)
(-0.866734 -0.277534 0)
(-1.00767 -0.502378 0)
(-0.494795 -0.470898 0)
(-0.04158 -0.140452 0)
(0.215506 -0.14691 0)
(0.223222 0.0954329 0)
(-0.884148 -0.87852 0)
(-0.641492 -1.49597 0)
(-0.355506 -0.970742 0)
(-0.380384 -0.156172 0)
(-0.524187 1.02526 0)
(-0.482667 1.41023 0)
(0.813301 0.795231 0)
(1.95968 0.237261 0)
(2.43246 0.0204162 0)
(2.53829 0.0636659 0)
(2.44607 0.334808 0)
(2.34492 0.784274 0)
(1.7368 0.770378 0)
(0.794577 0.257712 0)
(-0.681931 -0.463361 0)
(-0.723216 -0.509333 0)
(0.444402 -0.517686 0)
(0.442118 -0.394156 0)
(0.790575 0.157741 0)
(-0.505124 -0.346944 0)
(-0.48512 -1.60891 0)
(-0.283614 -1.23578 0)
(-0.376404 0.0126173 0)
(-0.232462 0.87021 0)
(0.0878645 0.938791 0)
(1.28293 0.310386 0)
(1.66475 -0.105942 0)
(1.69734 -0.199697 0)
(1.86907 -0.111304 0)
(2.10328 0.114492 0)
(2.33153 0.534388 0)
(2.41799 0.835183 0)
(2.06017 0.773168 0)
(1.22784 0.116707 0)
(0.222506 -0.607765 0)
(0.810766 -0.769402 0)
(0.756291 -0.496823 0)
(0.975136 0.177842 0)
(-0.149304 0.0811724 0)
(-0.316558 -1.63608 0)
(-0.196725 -1.44569 0)
(-0.0920098 0.186718 0)
(0.159229 0.571726 0)
(0.77939 0.445517 0)
(1.28554 0.0849335 0)
(1.31729 -0.0968227 0)
(1.24245 -0.149318 0)
(1.26139 -0.0991024 0)
(1.38279 0.0564977 0)
(1.68434 0.409575 0)
(2.06945 0.759356 0)
(2.26204 0.961495 0)
(1.89918 0.482522 0)
(1.4861 -0.20084 0)
(1.37748 -0.672427 0)
(1.01123 -0.470441 0)
(0.976749 0.512699 0)
(-0.0726915 0.373182 0)
(-0.160978 -1.57648 0)
(-0.115863 -1.58766 0)
(0.057515 -0.0742958 0)
(0.189471 -0.139539 0)
(0.257039 -0.139081 0)
(0.235026 -0.098064 0)
(0.198157 -0.0565651 0)
(0.159417 -0.0357799 0)
(0.126801 -0.0340109 0)
(0.106919 -0.0286945 0)
(0.0989135 -0.0118978 0)
(0.096746 0.0106863 0)
(0.0942023 0.0344767 0)
(0.0860274 0.0556022 0)
(0.0741068 0.0632907 0)
(0.0671259 0.055391 0)
(0.0640723 0.0486827 0)
(0.0594895 0.0412721 0)
(0.0569927 0.0315783 0)
(0.0622501 0.0251517 0)
(0.0736974 0.0240773 0)
(0.0875899 0.0196225 0)
(0.101505 0.0159751 0)
(0.125291 -0.00122222 0)
(0.131951 0.0471484 0)
(0.0180284 -0.284806 0)
(0.123684 -0.137646 0)
(-0.675166 0.0294673 0)
(-0.528208 0.0225176 0)
(-0.271562 0.000895325 0)
(-0.185856 -0.000478237 0)
(-0.169033 -0.0118647 0)
(-0.166531 -0.00891352 0)
(-0.128097 -0.00101814 0)
(-0.0720802 0.00709812 0)
(-0.0324714 0.0192688 0)
(0.0189037 0.0351012 0)
(0.0590824 0.0351726 0)
(0.08705 0.0304134 0)
(0.0897778 0.0438397 0)
(0.0728565 0.0559959 0)
(0.0570146 0.0469131 0)
(0.0598299 0.028719 0)
(0.0708064 0.0176245 0)
(0.0820475 0.00520223 0)
(0.0953558 -0.00246067 0)
(0.111046 -0.0194319 0)
(0.132757 0.00475541 0)
(-0.0749993 -0.20231 0)
(-0.0960059 0.412935 0)
(-0.299813 0.275201 0)
(-0.27308 -0.228715 0)
(-0.399317 -0.392583 0)
(-0.583235 -0.11294 0)
(-0.693343 -0.0295345 0)
(-0.803245 -0.0387698 0)
(-0.884452 -0.0806838 0)
(-0.912237 -0.0882205 0)
(-0.759676 -0.0431595 0)
(-0.484125 -0.0220991 0)
(-0.265681 0.00425998 0)
(-0.146571 0.0231316 0)
(-0.0334043 0.0558463 0)
(0.0126621 0.0680569 0)
(0.0581416 0.0407139 0)
(0.0965652 0.0124408 0)
(0.103746 0.0083278 0)
(0.0935718 -0.00392926 0)
(0.0964492 -0.0245977 0)
(0.107548 -0.0384616 0)
(0.122527 -0.0377597 0)
(-0.151013 -0.0238286 0)
(-0.129941 0.242189 0)
(-0.050265 0.336297 0)
(-0.0104465 0.0876332 0)
(-0.119481 0.0815023 0)
(-0.265843 0.161379 0)
(-0.281686 0.157929 0)
(-0.282143 0.120563 0)
(-0.300702 0.0280485 0)
(-0.399159 -0.116679 0)
(-0.548402 -0.236735 0)
(-0.68977 -0.421093 0)
(-0.775827 -0.293635 0)
(-0.694785 -0.17766 0)
(-0.512385 -0.0975581 0)
(-0.359436 -0.0313029 0)
(-0.277666 -0.0401555 0)
(-0.13972 -0.0120053 0)
(-0.0502882 0.0208997 0)
(0.0141103 0.0113002 0)
(0.0872138 -0.0129808 0)
(0.132249 -0.025297 0)
(0.140553 -0.0357217 0)
(-0.10232 0.0579263 0)
(-0.056891 0.100181 0)
(0.00871831 0.183484 0)
(0.077289 -0.0189494 0)
(-0.00120725 -0.0533957 0)
(-0.00647708 0.0836913 0)
(0.00428064 0.0902812 0)
(0.0263976 0.0590027 0)
(0.0468544 0.0658988 0)
(0.0567992 0.120846 0)
(0.0235738 0.210362 0)
(-0.158315 0.0510699 0)
(-0.307325 -0.143727 0)
(-0.367087 -0.183887 0)
(-0.394064 -0.284492 0)
(-0.472981 -0.176514 0)
(-0.538649 -0.12875 0)
(-0.664684 -0.202144 0)
(-0.627867 -0.172706 0)
(-0.450065 -0.170088 0)
(-0.278342 -0.136659 0)
(-0.161846 -0.0769674 0)
(-0.125642 -0.064251 0)
(-0.0432269 0.141252 0)
(-0.010967 0.104396 0)
(0.0270896 0.140731 0)
(0.0690931 0.0741418 0)
(-0.00776866 0.0931488 0)
(-0.00990954 0.0978016 0)
(0.00522851 0.0808811 0)
(-0.00674916 0.0480659 0)
(-0.0235569 -0.0015926 0)
(-0.0249841 -0.0392862 0)
(0.0379905 0.00570868 0)
(0.0657253 0.000972459 0)
(0.0137461 0.0113794 0)
(-0.0907525 -0.0327151 0)
(-0.0887548 -0.0817051 0)
(-0.104956 -0.0172095 0)
(-0.0846623 0.0428315 0)
(-0.122157 0.0179329 0)
(-0.155463 -0.0263245 0)
(-0.308429 -0.290951 0)
(-0.471064 -0.26138 0)
(-0.595958 -0.170169 0)
(-0.670323 -0.0711997 0)
(-0.0230761 0.139971 0)
(-0.0060121 0.0567116 0)
(0.0157401 0.109502 0)
(0.0326452 0.0766793 0)
(0.00301927 0.0772943 0)
(0.00245174 0.0945971 0)
(0.00516504 0.0938414 0)
(0.00211574 0.0790719 0)
(-0.00799502 0.0558418 0)
(-0.0333355 0.0413836 0)
(-0.0457773 0.0505061 0)
(-0.0294411 0.0492447 0)
(-0.0341522 0.0194626 0)
(-0.0323112 -0.100096 0)
(-0.0529278 -0.157571 0)
(-0.0878347 -0.126984 0)
(-0.063932 -0.0728508 0)
(-0.021223 -0.0393694 0)
(0.0202587 -0.0183293 0)
(0.0753022 0.0285658 0)
(0.0860863 0.00630214 0)
(0.170079 0.0170789 0)
(0.123987 0.0232748 0)
(-0.0140328 0.153267 0)
(-0.00668682 0.0563925 0)
(0.00377627 0.0962743 0)
(0.0140022 0.084328 0)
(0.0044291 0.085378 0)
(0.0075103 0.0905117 0)
(0.00743206 0.0912692 0)
(0.00253518 0.0778108 0)
(-0.0110472 0.0486794 0)
(-0.0272843 0.0176399 0)
(-0.0307995 0.0067274 0)
(-0.0172495 0.0100799 0)
(0.0076093 0.0146066 0)
(0.0208587 -0.0340919 0)
(-0.00905188 -0.0662738 0)
(-0.0362941 -0.0599936 0)
(-0.0403234 -0.0559404 0)
(-0.0203892 -0.0719855 0)
(0.000237045 -0.148461 0)
(0.0567998 -0.217375 0)
(0.163677 -0.25988 0)
(0.271619 -0.191536 0)
(0.400323 0.0321825 0)
(-0.00947475 0.163791 0)
(-0.006231 0.0477738 0)
(0.000636336 0.0836918 0)
(0.00874365 0.0852291 0)
(0.00544055 0.0872693 0)
(0.00963756 0.0892501 0)
(0.0136139 0.0914919 0)
(0.0163669 0.0869644 0)
(0.0136999 0.0726135 0)
(0.00385245 0.0521332 0)
(-0.00787948 0.0298529 0)
(-0.0120458 0.00570489 0)
(0.00366308 -0.0198696 0)
(0.0120417 -0.0595831 0)
(-0.000482622 -0.0796022 0)
(-0.00982715 -0.080036 0)
(-0.00879661 -0.0767664 0)
(0.0163074 -0.0864462 0)
(0.0538905 -0.13922 0)
(0.0912904 -0.216716 0)
(0.15371 -0.293784 0)
(0.196043 -0.259479 0)
(0.269164 -0.0496028 0)
(-0.00474884 0.169112 0)
(-0.00298308 0.0458634 0)
(4.99921e-05 0.0768727 0)
(0.00629003 0.0830737 0)
(0.00628338 0.0841795 0)
(0.0104965 0.0847758 0)
(0.0160051 0.0861452 0)
(0.0221944 0.0834211 0)
(0.0252708 0.0712374 0)
(0.0237038 0.0498978 0)
(0.0210271 0.0258182 0)
(0.0180127 0.00297751 0)
(0.017308 -0.015968 0)
(0.0127144 -0.0394114 0)
(-0.000665018 -0.056592 0)
(-0.011699 -0.0645741 0)
(-0.0156551 -0.0811665 0)
(-0.000621541 -0.121247 0)
(0.023385 -0.190263 0)
(0.0430246 -0.271825 0)
(0.0526473 -0.34779 0)
(0.0480723 -0.306496 0)
(0.0647604 -0.0839723 0)
(-0.000577668 0.170857 0)
(-0.000476739 0.0447847 0)
(0.000384421 0.0726685 0)
(0.00482426 0.0809561 0)
(0.0058187 0.0811048 0)
(0.00930725 0.0800624 0)
(0.0140849 0.0793058 0)
(0.0205163 0.0762477 0)
(0.0263647 0.0673851 0)
(0.0290737 0.0518299 0)
(0.0279839 0.0318869 0)
(0.022978 0.00963289 0)
(0.0157896 -0.0113005 0)
(0.00528205 -0.0319185 0)
(-0.00933115 -0.0474901 0)
(-0.0209271 -0.0595306 0)
(-0.0268758 -0.0825626 0)
(-0.0273019 -0.126267 0)
(-0.0316016 -0.188803 0)
(-0.0402999 -0.255281 0)
(-0.083763 -0.312205 0)
(-0.153829 -0.264726 0)
(-0.186881 -0.0687919 0)
(0.00216557 0.169563 0)
(0.00126662 0.0453041 0)
(0.000756294 0.0702267 0)
(0.00364323 0.0791392 0)
(0.00455278 0.0787462 0)
(0.00694103 0.0766928 0)
(0.0100415 0.0742995 0)
(0.0144862 0.0703228 0)
(0.0190374 0.0627908 0)
(0.0213722 0.050288 0)
(0.019944 0.0340052 0)
(0.0140025 0.0163617 0)
(0.0044611 -0.000514089 0)
(-0.0085867 -0.0170773 0)
(-0.0234844 -0.032556 0)
(-0.0366428 -0.0485476 0)
(-0.0481481 -0.0731758 0)
(-0.063679 -0.113606 0)
(-0.0888028 -0.167609 0)
(-0.125382 -0.219311 0)
(-0.198569 -0.25327 0)
(-0.290854 -0.201838 0)
(-0.336132 -0.0346734 0)
(0.00347307 0.166565 0)
(0.00217715 0.046943 0)
(0.000876619 0.0692573 0)
(0.00243911 0.0779729 0)
(0.00288899 0.0772413 0)
(0.00415696 0.07478 0)
(0.00553089 0.0716362 0)
(0.00742317 0.0671205 0)
(0.00921435 0.0603538 0)
(0.00944289 0.0506063 0)
(0.00658832 0.0383466 0)
(-0.000274134 0.024721 0)
(-0.0104271 0.0109914 0)
(-0.0232602 -0.00316163 0)
(-0.0380217 -0.0178347 0)
(-0.0537696 -0.0339287 0)
(-0.0713153 -0.0547054 0)
(-0.0960816 -0.0848965 0)
(-0.132707 -0.124786 0)
(-0.183303 -0.16317 0)
(-0.258681 -0.182143 0)
(-0.343938 -0.144375 0)
(-0.39099 -0.0212693 0)
(0.00363363 0.163294 0)
(0.00227385 0.0483319 0)
(0.000720498 0.0692897 0)
(0.00115846 0.0775569 0)
(0.0010465 0.0766341 0)
(0.00133975 0.0741545 0)
(0.00137193 0.0709937 0)
(0.00126948 0.0666523 0)
(0.000656643 0.0607746 0)
(-0.00127043 0.0531333 0)
(-0.005527 0.0438842 0)
(-0.0127698 0.0334661 0)
(-0.0227288 0.0225417 0)
(-0.0352677 0.0109426 0)
(-0.0506488 -0.00139393 0)
(-0.0689752 -0.0148043 0)
(-0.0912503 -0.0298077 0)
(-0.120778 -0.0492091 0)
(-0.162724 -0.0750713 0)
(-0.223281 -0.100114 0)
(-0.305152 -0.104778 0)
(-0.395209 -0.059931 0)
(-0.462017 0.0449979 0)
(0.00322932 0.160455 0)
(0.00191535 0.049684 0)
(0.000196694 0.0700672 0)
(-0.000165528 0.0778075 0)
(-0.000808071 0.0768105 0)
(-0.00130962 0.0745056 0)
(-0.00220387 0.0716996 0)
(-0.00355382 0.0679563 0)
(-0.0056887 0.0631116 0)
(-0.00903826 0.0571304 0)
(-0.0141729 0.0501193 0)
(-0.0215398 0.042269 0)
(-0.0313284 0.0339239 0)
(-0.0437341 0.0251767 0)
(-0.0592037 0.0161898 0)
(-0.0785171 0.00694777 0)
(-0.102504 -0.00233464 0)
(-0.132376 -0.0119081 0)
(-0.172929 -0.0222052 0)
(-0.233075 -0.0294582 0)
(-0.313474 -0.0203317 0)
(-0.396212 0.0227483 0)
(-0.460149 0.103798 0)
(0.00269184 0.158209 0)
(0.00137266 0.0510336 0)
(-0.000545928 0.0713529 0)
(-0.00145313 0.0785998 0)
(-0.00253578 0.0776052 0)
(-0.00366725 0.0755825 0)
(-0.0052083 0.0732425 0)
(-0.00729634 0.0702333 0)
(-0.0102297 0.0664491 0)
(-0.0143141 0.0619075 0)
(-0.0198949 0.0567022 0)
(-0.0273238 0.0510132 0)
(-0.0369268 0.0450576 0)
(-0.0489794 0.0391122 0)
(-0.0638525 0.033511 0)
(-0.0821425 0.0284676 0)
(-0.104758 0.024284 0)
(-0.132743 0.0220997 0)
(-0.168026 0.023558 0)
(-0.214167 0.0301253 0)
(-0.272274 0.0471122 0)
(-0.335069 0.084893 0)
(-0.38876 0.147521 0)
(0.00220638 0.156534 0)
(0.000780732 0.0525576 0)
(-0.00135403 0.0729405 0)
(-0.00261146 0.0798065 0)
(-0.00405555 0.0788847 0)
(-0.0056539 0.0772047 0)
(-0.00766767 0.0753478 0)
(-0.0102229 0.0730577 0)
(-0.0135723 0.070261 0)
(-0.017984 0.0669988 0)
(-0.0237173 0.063375 0)
(-0.0310758 0.0595748 0)
(-0.0403534 0.0558032 0)
(-0.0518331 0.0523638 0)
(-0.0658282 0.0496154 0)
(-0.0827078 0.0481083 0)
(-0.103059 0.0486202 0)
(-0.127597 0.0520114 0)
(-0.157007 0.0594394 0)
(-0.191907 0.0736289 0)
(-0.232023 0.0987537 0)
(-0.273498 0.137352 0)
(-0.308644 0.187985 0)
(0.00182402 0.155345 0)
(0.000232033 0.0543148 0)
(-0.00212577 0.0747619 0)
(-0.00357891 0.0813117 0)
(-0.00530644 0.0805361 0)
(-0.00722418 0.0792192 0)
(-0.00956402 0.0778415 0)
(-0.0124187 0.0762109 0)
(-0.0159844 0.0743003 0)
(-0.02049 0.0721717 0)
(-0.0261514 0.0699443 0)
(-0.0332228 0.0677855 0)
(-0.0419256 0.0659323 0)
(-0.0524924 0.0646941 0)
(-0.0651851 0.0644691 0)
(-0.0802524 0.0657816 0)
(-0.0979171 0.0693604 0)
(-0.118399 0.0762206 0)
(-0.142012 0.0874784 0)
(-0.168632 0.104598 0)
(-0.196464 0.130037 0)
(-0.222322 0.165819 0)
(-0.242564 0.21065 0)
(0.00153965 0.154543 0)
(-0.000204299 0.0562913 0)
(-0.00277481 0.0767808 0)
(-0.00433838 0.0830299 0)
(-0.00625895 0.0824396 0)
(-0.00836855 0.081487 0)
(-0.0108907 0.0805689 0)
(-0.0138897 0.0795384 0)
(-0.0175189 0.0784063 0)
(-0.0219486 0.077251 0)
(-0.0273536 0.0762065 0)
(-0.0339271 0.0754313 0)
(-0.0418301 0.0751695 0)
(-0.0512321 0.0757064 0)
(-0.0622804 0.0774376 0)
(-0.0750808 0.0808996 0)
(-0.0897051 0.086813 0)
(-0.106159 0.0960403 0)
(-0.124343 0.109453 0)
(-0.143737 0.12794 0)
(-0.162968 0.152552 0)
(-0.179566 0.183974 0)
(-0.190694 0.222041 0)
(0.00134436 0.154042 0)
(-0.000526026 0.0584839 0)
(-0.00327332 0.0789078 0)
(-0.00487774 0.0848777 0)
(-0.00690849 0.0844851 0)
(-0.00910158 0.0838795 0)
(-0.0116802 0.0833868 0)
(-0.0146806 0.082889 0)
(-0.0182291 0.0824216 0)
(-0.0224411 0.0820791 0)
(-0.0274452 0.081996 0)
(-0.0333775 0.0823406 0)
(-0.0403472 0.0833315 0)
(-0.0484657 0.0852348 0)
(-0.0578022 0.0884187 0)
(-0.068369 0.0933594 0)
(-0.0801054 0.10068 0)
(-0.0928466 0.111102 0)
(-0.106287 0.125303 0)
(-0.119778 0.143795 0)
(-0.132263 0.166856 0)
(-0.142201 0.19459 0)
(-0.147426 0.22694 0)
(0.00122912 0.153744 0)
(-0.000739744 0.0608526 0)
(-0.00361664 0.0810811 0)
(-0.00519741 0.08678 0)
(-0.00726887 0.0865825 0)
(-0.00945545 0.086292 0)
(-0.0119895 0.0861739 0)
(-0.0148805 0.0861312 0)
(-0.0182272 0.0862128 0)
(-0.0221103 0.0865283 0)
(-0.0266112 0.0872042 0)
(-0.0318192 0.0884116 0)
(-0.0378008 0.0903441 0)
(-0.0446051 0.0932417 0)
(-0.0522449 0.0974262 0)
(-0.0606594 0.103317 0)
(-0.0697027 0.111426 0)
(-0.0791343 0.122333 0)
(-0.0885681 0.136515 0)
(-0.0973725 0.154226 0)
(-0.104674 0.175329 0)
(-0.109434 0.19956 0)
(-0.110146 0.226899 0)
(0.00118093 0.153561 0)
(-0.000859323 0.0633495 0)
(-0.00380698 0.0832516 0)
(-0.00531065 0.0886745 0)
(-0.0073623 0.088657 0)
(-0.00947162 0.0886414 0)
(-0.0118837 0.0888372 0)
(-0.0145852 0.0891675 0)
(-0.0176452 0.0896892 0)
(-0.0211179 0.0905129 0)
(-0.0250531 0.0917634 0)
(-0.0294981 0.0935993 0)
(-0.034483 0.0961982 0)
(-0.0400108 0.0997671 0)
(-0.0460336 0.104576 0)
(-0.0524552 0.110961 0)
(-0.0590848 0.119347 0)
(-0.0656592 0.130172 0)
(-0.0717757 0.143788 0)
(-0.0768476 0.160265 0)
(-0.0801639 0.179283 0)
(-0.0809945 0.200292 0)
(-0.0782693 0.223116 0)
(0.00117908 0.153421 0)
(-0.000900622 0.0659134 0)
(-0.00384591 0.0853723 0)
(-0.00523257 0.0905094 0)
(-0.00721493 0.0906463 0)
(-0.00919241 0.0908603 0)
(-0.0114249 0.0913079 0)
(-0.0138772 0.0919297 0)
(-0.0165984 0.0927875 0)
(-0.0196173 0.0939838 0)
(-0.0229553 0.0956408 0)
(-0.0266298 0.0979036 0)
(-0.030641 0.100925 0)
(-0.0349535 0.104882 0)
(-0.0395023 0.109994 0)
(-0.0441522 0.116515 0)
(-0.0486945 0.124797 0)
(-0.0528556 0.135174 0)
(-0.0562496 0.147886 0)
(-0.0583718 0.162879 0)
(-0.0586462 0.179736 0)
(-0.0565544 0.197787 0)
(-0.0513594 0.216659 0)
(0.00119736 0.153275 0)
(-0.00087068 0.0684736 0)
(-0.00373096 0.0873952 0)
(-0.00497625 0.092243 0)
(-0.00684725 0.092506 0)
(-0.00865122 0.0929004 0)
(-0.0106649 0.0935382 0)
(-0.0128315 0.0943742 0)
(-0.0151848 0.0954693 0)
(-0.0177326 0.0969204 0)
(-0.0204733 0.0988388 0)
(-0.0234052 0.10135 0)
(-0.0265047 0.104596 0)
(-0.0297074 0.108708 0)
(-0.0329339 0.113861 0)
(-0.0360311 0.12027 0)
(-0.0387769 0.128171 0)
(-0.0409257 0.137848 0)
(-0.0421352 0.149463 0)
(-0.041969 0.162888 0)
(-0.0399512 0.177618 0)
(-0.0357196 0.192961 0)
(-0.0288156 0.208438 0)
(0.00121033 0.153084 0)
(-0.000767145 0.0709463 0)
(-0.00345968 0.0892741 0)
(-0.00454337 0.0938426 0)
(-0.00627199 0.0942037 0)
(-0.00787483 0.0947307 0)
(-0.00964484 0.0955019 0)
(-0.0115074 0.0964813 0)
(-0.0134844 0.0977254 0)
(-0.0155671 0.0993251 0)
(-0.0177423 0.10138 0)
(-0.0199765 0.103993 0)
(-0.0222405 0.107292 0)
(-0.0244541 0.111386 0)
(-0.0265043 0.116393 0)
(-0.0282771 0.122481 0)
(-0.029551 0.129818 0)
(-0.0300471 0.138627 0)
(-0.029486 0.149025 0)
(-0.0275498 0.160851 0)
(-0.0238445 0.173594 0)
(-0.0180761 0.186516 0)
(-0.0100052 0.199144 0)
(0.00120507 0.152821 0)
(-0.000573951 0.0732431 0)
(-0.00303689 0.0909646 0)
(-0.00393997 0.0952859 0)
(-0.00549902 0.0957143 0)
(-0.00688028 0.096333 0)
(-0.00839458 0.0971878 0)
(-0.0099519 0.0982482 0)
(-0.0115634 0.0995657 0)
(-0.0132057 0.101225 0)
(-0.0148588 0.10331 0)
(-0.0164739 0.105912 0)
(-0.017993 0.109127 0)
(-0.0193422 0.113054 0)
(-0.0204061 0.117767 0)
(-0.0210636 0.123379 0)
(-0.0211062 0.130038 0)
(-0.0202825 0.137891 0)
(-0.0183534 0.147023 0)
(-0.0150377 0.157271 0)
(-0.0100545 0.168155 0)
(-0.00317806 0.178932 0)
(0.00565015 0.189177 0)
(0.00119415 0.152443 0)
(-0.000272514 0.0752912 0)
(-0.00248207 0.0924239 0)
(-0.00317998 0.0965517 0)
(-0.00455153 0.097017 0)
(-0.00569324 0.0976941 0)
(-0.00694711 0.0985922 0)
(-0.00820375 0.0996861 0)
(-0.0094651 0.101025 0)
(-0.0107003 0.102668 0)
(-0.0118866 0.1047 0)
(-0.0129588 0.107193 0)
(-0.0138483 0.110225 0)
(-0.0144736 0.113867 0)
(-0.0147151 0.118184 0)
(-0.0144529 0.12323 0)
(-0.0135159 0.129123 0)
(-0.0116695 0.135961 0)
(-0.00868831 0.143835 0)
(-0.00433834 0.152537 0)
(0.00158109 0.161695 0)
(0.009258 0.170576 0)
(0.0187104 0.178829 0)
(0.00122674 0.151888 0)
(0.000140682 0.0770579 0)
(-0.00183949 0.0936232 0)
(-0.00229356 0.0976243 0)
(-0.00347133 0.0980909 0)
(-0.00435385 0.0988009 0)
(-0.00534127 0.0997118 0)
(-0.00629292 0.100805 0)
(-0.00722619 0.102118 0)
(-0.00809189 0.103696 0)
(-0.00885579 0.105612 0)
(-0.00946065 0.107929 0)
(-0.0098234 0.110702 0)
(-0.00985046 0.113989 0)
(-0.00943861 0.117828 0)
(-0.00846542 0.12225 0)
(-0.00676609 0.127324 0)
(-0.00413264 0.133119 0)
(-0.00042331 0.139715 0)
(0.00466891 0.14698 0)
(0.0113217 0.154516 0)
(0.0195929 0.161662 0)
(0.029539 0.16821 0)
(0.00135211 0.151036 0)
(0.000641008 0.0785535 0)
(-0.001165 0.0945571 0)
(-0.00132527 0.0984997 0)
(-0.00232689 0.098915 0)
(-0.00292286 0.0996441 0)
(-0.00363776 0.100542 0)
(-0.00428595 0.101605 0)
(-0.00489176 0.10286 0)
(-0.00539801 0.104355 0)
(-0.00577029 0.106119 0)
(-0.00595705 0.108211 0)
(-0.00586845 0.110681 0)
(-0.00541279 0.11357 0)
(-0.0044856 0.116885 0)
(-0.00296206 0.120629 0)
(-0.000715232 0.124871 0)
(0.00245018 0.129636 0)
(0.00671975 0.134968 0)
(0.0123345 0.140873 0)
(0.0194189 0.146826 0)
(0.0281311 0.152297 0)
(0.0385624 0.157225 0)
(0.00162568 0.149759 0)
(0.00121636 0.0798453 0)
(-0.000498019 0.0952772 0)
(-0.000331936 0.0991674 0)
(-0.00120298 0.0994641 0)
(-0.00147089 0.100229 0)
(-0.00192256 0.101075 0)
(-0.00225509 0.102086 0)
(-0.00251535 0.103262 0)
(-0.00266709 0.104637 0)
(-0.00267241 0.106231 0)
(-0.00245843 0.108077 0)
(-0.00194496 0.110214 0)
(-0.00106338 0.112677 0)
(0.000265165 0.115439 0)
(0.0022117 0.11853 0)
(0.00490427 0.121952 0)
(0.00845448 0.125718 0)
(0.0130969 0.129864 0)
(0.0190309 0.134371 0)
(0.0263885 0.138775 0)
(0.0354289 0.142612 0)
(0.0462719 0.145799 0)
(0.00202912 0.147985 0)
(0.00182782 0.0810543 0)
(0.00012904 0.0958257 0)
(0.000575742 0.0995774 0)
(-0.000175096 0.0997876 0)
(-7.9679e-05 0.100569 0)
(-0.000317699 0.101308 0)
(-0.000327492 0.10225 0)
(-0.000257384 0.103317 0)
(-4.44507e-05 0.104536 0)
(0.000333689 0.105935 0)
(0.000939275 0.107529 0)
(0.00186787 0.109335 0)
(0.00315149 0.111363 0)
(0.00489831 0.113586 0)
(0.00725668 0.116056 0)
(0.0102906 0.118685 0)
(0.014159 0.121511 0)
(0.0190904 0.124513 0)
(0.0252482 0.127649 0)
(0.0328323 0.130527 0)
(0.0420915 0.132653 0)
(0.0532068 0.133859 0)
(0.00253858 0.145652 0)
(0.00244328 0.0822498 0)
(0.000609275 0.0962121 0)
(0.00135321 0.0997559 0)
(0.000713727 0.0999085 0)
(0.00108951 0.100633 0)
(0.00101963 0.101263 0)
(0.00132715 0.102096 0)
(0.00168542 0.103027 0)
(0.00223052 0.104071 0)
(0.00297972 0.105251 0)
(0.00398749 0.106584 0)
(0.00532649 0.108058 0)
(0.00702229 0.109647 0)
(0.00919883 0.111384 0)
(0.0119559 0.113202 0)
(0.0153782 0.115061 0)
(0.0195903 0.117003 0)
(0.0247958 0.118936 0)
(0.0311982 0.120753 0)
(0.0390085 0.122139 0)
(0.0484278 0.122501 0)
(0.0596903 0.12159 0)
(0.00314654 0.142723 0)
(0.00302179 0.0835228 0)
(0.0009234 0.0964916 0)
(0.00193311 0.099768 0)
(0.00131216 0.0998357 0)
(0.00192448 0.100452 0)
(0.00194882 0.100972 0)
(0.00248764 0.101667 0)
(0.00306664 0.102419 0)
(0.00387786 0.103267 0)
(0.00494358 0.104207 0)
(0.00628889 0.105229 0)
(0.00796803 0.106348 0)
(0.0100636 0.107513 0)
(0.0126423 0.108729 0)
(0.0157704 0.109928 0)
(0.019601 0.111069 0)
(0.0242206 0.112117 0)
(0.0297597 0.113024 0)
(0.0364579 0.113597 0)
(0.0445389 0.113525 0)
(0.0541376 0.112177 0)
(0.0654579 0.109205 0)
(0.00380446 0.139154 0)
(0.00350504 0.0850241 0)
(0.00105611 0.0967868 0)
(0.00228206 0.0996675 0)
(0.00155791 0.0996397 0)
(0.00230978 0.100155 0)
(0.00235256 0.100525 0)
(0.00301276 0.101051 0)
(0.00369868 0.101591 0)
(0.00466487 0.102204 0)
(0.00588662 0.102854 0)
(0.00744167 0.103538 0)
(0.00937346 0.104261 0)
(0.0117143 0.104982 0)
(0.0145782 0.105656 0)
(0.0180171 0.106232 0)
(0.0221395 0.106665 0)
(0.0270739 0.106852 0)
(0.0329416 0.10672 0)
(0.0399066 0.106066 0)
(0.0481712 0.104578 0)
(0.0579152 0.101672 0)
(0.0691463 0.0968633 0)
(0.00446663 0.13505 0)
(0.00387311 0.0869163 0)
(0.00100511 0.097291 0)
(0.00236692 0.0996469 0)
(0.00145441 0.0995305 0)
(0.00226932 0.0999349 0)
(0.00220232 0.10013 0)
(0.00287467 0.100461 0)
(0.00354345 0.10077 0)
(0.00451446 0.101099 0)
(0.00575238 0.101428 0)
(0.00733347 0.101773 0)
(0.00929742 0.102072 0)
(0.011703 0.102319 0)
(0.0146281 0.102448 0)
(0.0181419 0.102364 0)
(0.0223477 0.102046 0)
(0.027347 0.10137 0)
(0.0332626 0.100213 0)
(0.0402542 0.0983498 0)
(0.0484712 0.0955029 0)
(0.0580875 0.0911615 0)
(0.0689056 0.0847597 0)
(0.00504359 0.130606 0)
(0.00409909 0.0891887 0)
(0.000848845 0.0980101 0)
(0.00224948 0.0997427 0)
(0.00108514 0.0995846 0)
(0.00187538 0.0998379 0)
(0.001635 0.0998627 0)
(0.00223939 0.0999961 0)
(0.00276512 0.100064 0)
(0.00360971 0.100114 0)
(0.00472585 0.100143 0)
(0.00615955 0.100126 0)
(0.0079614 0.100024 0)
(0.0101939 0.0997933 0)
(0.0129044 0.0993505 0)
(0.0161955 0.0986335 0)
(0.0201526 0.0975597 0)
(0.0248574 0.096019 0)
(0.0304289 0.0938532 0)
(0.0369872 0.0908726 0)
(0.0446119 0.0867692 0)
(0.0534829 0.0811142 0)
(0.0633148 0.0733592 0)
(0.00549881 0.125747 0)
(0.00414661 0.0916429 0)
(0.000617262 0.0988018 0)
(0.00200357 0.0997737 0)
(0.000606705 0.0996595 0)
(0.00132433 0.099695 0)
(0.000887471 0.0995871 0)
(0.00136534 0.0995321 0)
(0.00169668 0.099389 0)
(0.00235831 0.0991991 0)
(0.00323774 0.0989427 0)
(0.00439009 0.0985919 0)
(0.00587444 0.0981216 0)
(0.00773995 0.0974451 0)
(0.0100542 0.096483 0)
(0.0128768 0.0951685 0)
(0.0162758 0.0934194 0)
(0.0203289 0.0911063 0)
(0.0251515 0.0880697 0)
(0.0308137 0.0841127 0)
(0.0372865 0.0789558 0)
(0.0447314 0.0722823 0)
(0.0528205 0.0635428 0)
(0.00557343 0.120538 0)
(0.00394381 0.0941952 0)
(0.000445143 0.099646 0)
(0.00170761 0.0998235 0)
(0.000207362 0.0997845 0)
(0.000795801 0.0995779 0)
(0.000255465 0.0993774 0)
(0.000605006 0.099139 0)
(0.000742912 0.0988131 0)
(0.00117927 0.0984099 0)
(0.00179066 0.0978935 0)
(0.00264081 0.0972689 0)
(0.00376773 0.0964594 0)
(0.00520722 0.0953889 0)
(0.00700918 0.0939827 0)
(0.0092486 0.0921586 0)