/*--------------------------------*- C++ -*----------------------------------*\
| =========                 |                                                 |
| \\      /  F ield         | OpenFOAM: The Open Source CFD Toolbox           |
|  \\    /   O peration     | Version:  2206                                  |
|   \\  /    A nd           | Website:  www.openfoam.com                      |
|    \\/     M anipulation  |                                                 |
\*---------------------------------------------------------------------------*/
FoamFile
{
    version     2.0;
    format      ascii;
    arch        "LSB;label=32;scalar=64";
    class       volScalarField;
    location    "0.375";
    object      p_rgh;
}
// * * * * * * * * * * * * * * * * * * * * * * * * * * * * * * * * * * * * * //

dimensions      [1 -1 -2 0 0 0 0];

internalField   nonuniform List<scalar> 
2268
(
1000.52
1003.61
1012.38
1019.09
1020.44
1016.28
1009.68
1003.51
999.288
997.575
998.679
1002.92
1010.69
1022.63
1039.21
1060.67
1086.7
1114.92
1138.79
1148.41
1126.56
1106.04
1152.93
999.413
1002.27
1011.18
1017.82
1019.1
1014.97
1008.47
1002.44
998.332
996.693
997.825
1002.04
1009.68
1020.99
1036.55
1056.76
1081.64
1109.81
1135.93
1149.47
1126.81
1090.72
1146.99
997.147
999.743
1008.84
1015.3
1016.46
1012.37
1006.08
1000.32
996.436
994.936
996.117
1000.29
1007.81
1019.07
1034.31
1053.65
1076.55
1101.45
1125.08
1139.72
1133.18
1103.13
1148.59
993.935
995.996
1005.53
1011.6
1012.58
1008.56
1002.59
997.21
993.639
992.329
993.57
997.689
1005.06
1016.06
1030.88
1049.47
1071.07
1093.72
1114.45
1128.47
1130.43
1122.5
1163.65
990.058
991.639
1000.88
1006.79
1007.58
1003.66
998.07
993.165
989.973
988.882
990.18
994.219
1001.4
1012.1
1026.49
1044.41
1065.05
1086.55
1106.06
1120.31
1129.73
1137.56
1182.98
985.802
986.564
995.304
1001.05
1001.61
997.811
992.659
988.268
985.477
984.603
985.934
989.858
996.813
1007.18
1021.15
1038.5
1058.42
1079.23
1098.51
1113.44
1126.54
1141.11
1184.61
981.502
980.946
988.895
994.295
994.639
991.022
986.384
982.552
980.167
979.483
980.808
984.572
991.257
1001.28
1014.81
1031.67
1051.04
1071.45
1090.78
1106.19
1119.5
1132.53
1163.85
977.506
975.03
981.413
986.225
986.475
983.218
979.21
975.986
973.996
973.453
974.699
978.22
984.573
994.247
1007.46
1023.89
1042.81
1062.96
1082.36
1097.94
1109.27
1115.82
1117.61
264.709
264.616
264.458
264.293
264.047
263.846
263.635
263.428
263.23
263.047
262.887
262.75
262.638
262.551
262.487
262.444
262.416
262.399
262.386
264.719
264.62
264.458
264.296
264.048
263.846
263.632
263.424
263.225
263.042
262.882
262.745
262.633
262.546
262.483
262.439
262.412
262.395
262.382
264.737
264.625
264.453
264.294
264.048
263.842
263.626
263.418
263.219
263.034
262.873
262.736
262.623
262.537
262.474
262.431
262.404
262.388
262.375
264.763
264.63
264.439
264.29
264.048
263.836
263.617
263.409
263.208
263.022
262.86
262.722
262.608
262.522
262.46
262.418
262.392
262.377
262.364
264.842
264.772
264.418
264.281
264.052
263.826
263.603
263.397
263.195
263.004
262.842
262.703
262.588
262.502
262.441
262.4
262.377
262.363
262.35
264.993
265.016
264.407
264.269
264.059
263.81
263.584
263.381
263.178
262.982
262.819
262.679
262.562
262.476
262.417
262.378
262.357
262.345
262.333
265.086
264.978
264.357
264.27
264.074
263.785
263.557
263.36
263.16
262.953
262.791
262.651
262.53
262.445
262.387
262.352
262.334
262.324
262.312
265.069
264.811
264.312
264.23
264.096
263.747
263.525
263.332
263.14
262.916
262.756
262.618
262.492
262.407
262.352
262.32
262.307
262.3
262.288
971.775
965.964
968.539
972.66
973.099
970.356
967.158
964.714
963.19
962.728
963.706
966.671
972.255
981.083
993.683
1009.94
1028.79
1049.21
1069.11
1084.81
1091.01
1077.55
996.804
968.739
957.479
952.246
954.207
954.188
951.032
948.029
946.116
944.909
944.408
945.022
947.375
952.042
959.2
968.763
981.987
1000.19
1022.03
1044.49
1062.78
1069.88
1059.16
1023.66
972.939
957.538
930.601
921.516
921.122
915.806
909.789
906.112
903.175
900.124
897.55
897.386
902.239
914.053
933.046
956.268
975.8
1001.22
1029.85
1053.3
1067.47
1072.04
1069.83
980.835
768.65
461.013
433.278
444.678
422.767
396.398
380.618
367.663
353.081
338.499
328.211
328.281
342.986
374.188
425.851
536.477
710.348
911.485
1038.43
1067.1
1087.93
1100.23
387.774
79.0506
3.37918
3.14157
3.18726
3.19303
3.20889
3.23174
3.26116
3.29673
3.33954
3.38755
3.44021
3.50147
3.58646
3.65264
7.08817
32.7388
107.303
265.278
544.872
884.276
1123.51
3.0862
2.99226
2.95968
3.07589
3.13206
3.16261
3.18863
3.21599
3.248
3.28527
3.32845
3.37675
3.42882
3.49115
3.57017
3.66879
3.77533
3.8545
3.89656
4.20468
8.70641
87.5143
322.138
3.073
3.05235
3.11428
3.09543
3.1132
3.13668
3.16247
3.18994
3.22061
3.25577
3.29616
3.34187
3.38544
3.44307
3.51385
3.70438
4.00472
4.15823
4.22226
4.15683
4.06627
3.61966
3.99003
3.04148
3.04201
3.06456
3.07207
3.08708
3.10693
3.13057
3.15708
3.18671
3.22001
3.2577
3.29812
3.33931
3.38643
3.43725
4.07134
4.41456
4.38469
4.29099
4.18403
4.10515
3.41948
3.52755
3.00567
3.01068
3.0277
3.03957
3.05494
3.07394
3.09651
3.12215
3.15076
3.18243
3.21768
3.25457
3.29183
3.32841
3.37157
3.74886
4.26652
4.29949
3.8641
3.78855
3.56871
3.2602
3.4463
2.97206
2.97921
2.99124
3.00344
3.0187
3.03728
3.05921
3.08419
3.11193
3.14227
3.17532
3.21028
3.2456
3.28006
3.31204
3.32162
3.34542
3.59928
3.38167
3.27697
3.22651
3.31387
3.52043
2.93467
2.9409
2.95122
2.96345
2.97864
2.99706
3.01868
3.04332
3.07065
3.10038
3.13231
3.1659
3.20022
3.23595
3.26629
3.28637
3.29767
3.29514
3.61866
3.58042
3.48233
3.55784
3.71061
2.89329
2.89891
2.90825
2.92009
2.93513
2.95345
2.97498
2.99956
3.02691
3.05675
3.08883
3.1228
3.15811
3.19409
3.22772
3.25681
3.28074
3.29825
3.64963
4.20923
4.35018
4.4748
4.62935
2.84798
2.85262
2.86191
2.87331
2.88819
2.9065
2.92806
2.95278
2.98043
3.0108
3.04368
3.07881
3.11582
3.15408
3.19241
3.22989
3.26709
3.30464
3.34074
3.38604
3.45332
3.57685
3.89633
2.79866
2.80292
2.81149
2.82289
2.83776
2.85612
2.87786
2.90287
2.93102
2.96217
2.99617
3.03288
3.07209
3.1135
3.15678
3.20173
3.24867
3.2996
3.35636
3.42537
3.51159
3.61638
3.73863
2.74527
2.74934
2.75744
2.76884
2.78376
2.80227
2.82426
2.84969
2.87847
2.91053
2.94581
2.98428
3.0259
3.07065
3.11863
3.17018
3.22484
3.28614
3.35495
3.43417
3.52619
3.63258
3.75458
2.68786
2.69182
2.69969
2.71111
2.72614
2.74483
2.76715
2.79305
2.82252
2.85554
2.89215
2.9324
2.97637
3.02424
3.07628
3.13295
3.19489
3.26314
3.34036
3.42749
3.52598
3.63669
3.76002
2.62646
2.6304
2.63818
2.64963
2.66479
2.68369
2.70634
2.73274
2.7629
2.79687
2.83475
2.87665
2.92277
2.97338
3.02884
3.0897
3.15669
3.23082
3.31353
3.40579
3.50848
3.62209
3.74674
2.56113
2.56507
2.57283
2.58434
2.59962
2.61874
2.6417
2.66855
2.69934
2.73417
2.77318
2.81654
2.8645
2.9174
2.97565
3.0398
3.11056
3.18879
3.27544
3.37131
3.47701
3.59291
3.71906
2.49189
2.49584
2.50362
2.51517
2.53056
2.54985
2.57308
2.60031
2.63163
2.66717
2.70711
2.75166
2.8011
2.8558
2.91618
2.98279
3.05627
3.13732
3.2267
3.32504
3.43285
3.55045
3.67799
2.41876
2.42271
2.4305
2.44208
2.45754
2.47694
2.50036
2.52786
2.55957
2.59563
2.63626
2.68168
2.73221
2.78821
2.8501
2.91841
2.99369
3.07659
3.16771
3.26763
3.3768
3.49559
3.62425
2.34173
2.34566
2.35345
2.36502
2.3805
2.39994
2.42344
2.45108
2.483
2.51938
2.56042
2.60638
2.65758
2.71438
2.77718
2.84648
2.9228
3.0067
3.09875
3.19946
3.30932
3.42874
3.5581
2.26081
2.26471
2.27246
2.28398
2.29941
2.3188
2.34225
2.36989
2.40183
2.43828
2.47945
2.52561
2.57706
2.63416
2.69731
2.76695
2.84359
2.92775
3.01996
3.12074
3.2306
3.35002
3.47954
2.17602
2.17987
2.18754
2.19895
2.21424
2.23348
2.25677
2.28423
2.316
2.35227
2.39328
2.43927
2.49057
2.54749
2.61043
2.67981
2.75611
2.83982
2.93147
3.03159
3.14073
3.25947
3.38845
2.08737
2.09115
2.09872
2.10995
2.12503
2.144
2.16698
2.19409
2.22548
2.26133
2.30188
2.34737
2.3981
2.45438
2.51659
2.58513
2.66044
2.74303
2.8334
2.93211
3.03976
3.15702
3.28464
1.99493
1.99861
2.00602
2.01702
2.03179
2.05038
2.07292
2.0995
2.1303
2.16548
2.20528
2.24992
2.29969
2.35489
2.41587
2.483
2.55673
2.63752
2.72591
2.82244
2.92777
3.04264
3.16792
1.89874
1.90231
1.90952
1.92022
1.93459
1.9527
1.97464
2.00054
2.03053
2.06481
2.10356
2.14703
2.19547
2.24916
2.30842
2.37362
2.44517
2.52353
2.6092
2.70276
2.80489
2.91638
3.03818
1.7989
1.80234
1.80931
1.81964
1.83354
1.85104
1.87226
1.89729
1.92628
1.95941
1.99686
2.03884
2.08558
2.13735
2.19445
2.25722
2.32603
2.40132
2.48357
2.57336
2.67137
2.7784
2.89544
1.69553
1.69881
1.7055
1.71541
1.72875
1.74554
1.76588
1.78989
1.8177
1.84945
1.88533
1.92552
1.97024
2.01973
2.07424
2.13409
2.19964
2.27126
2.34942
2.43465
2.52761
2.62907
2.73999
1.58876
1.59187
1.59823
1.60766
1.62035
1.63633
1.65568
1.67851
1.70494
1.73511
1.76918
1.80732
1.84971
1.89656
1.9481
2.00461
2.0664
2.1338
2.20722
2.28715
2.37418
2.46898
2.57242
1.47878
1.48168
1.48769
1.49656
1.50855
1.5236
1.54184
1.56335
1.58824
1.61664
1.64868
1.68451
1.72429
1.76819
1.81642
1.8692
1.92679
1.98948
2.0576
2.13157
2.21185
2.29899
2.39369
1.36577
1.36844
1.37406
1.38233
1.39353
1.40757
1.42458
1.44464
1.46784
1.49429
1.52411
1.55742
1.59433
1.63501
1.67962
1.72834
1.78137
1.83892
1.90128
1.96872
2.0416
2.12024
2.20512
1.24994
1.25233
1.25754
1.26514
1.27549
1.28844
1.30413
1.32261
1.34399
1.36834
1.39575
1.42633
1.46018
1.4974
1.53814
1.58252
1.63069
1.68279
1.739
1.7995
1.86448
1.93403
2.00836
1.13146
1.13353
1.13831
1.14519
1.15462
1.1664
1.18067
1.19749
1.21691
1.23902
1.26388
1.29156
1.32215
1.35573
1.39239
1.43221
1.47527
1.52166
1.57147
1.62475
1.68152
1.74166
1.80505
1.01059
1.0123
1.01664
1.02273
1.0312
1.04174
1.05452
1.06957
1.08694
1.10668
1.12885
1.1535
1.18068
1.21046
1.24287
1.27796
1.31575
1.35626
1.3995
1.44541
1.49384
1.54447
1.59691
0.887739
0.889051
0.892969
0.898214
0.905674
0.914923
0.926141
0.939342
0.954564
0.971849
0.991231
1.01274
1.03641
1.06226
1.09031
1.12055
1.15296
1.18751
1.22412
1.26263
1.30275
1.34399
1.38572
0.763127
0.764001
0.767515
0.771865
0.778282
0.786193
0.795794
0.807086
0.820094
0.834845
0.851357
0.869642
0.889707
0.91155
0.935148
0.960467
0.987446
1.016
1.04597
1.07712
1.10907
1.14118
1.17264
0.636429
0.636772
0.639901
0.643326
0.648657
0.655187
0.663114
0.672433
0.683157
0.695297
0.708855
0.723826
0.740196
0.757938
0.777004
0.797327
0.818812
0.841322
0.864655
0.888509
0.912421
0.935674
0.957368
0.507727
0.507448
0.510193
0.512696
0.516896
0.52201
0.528216
0.535512
0.543895
0.553362
0.563901
0.575491
0.588102
0.601684
0.616166
0.631455
0.647425
0.663903
0.680645
0.697301
0.713353
0.728042
0.740421
0.37909
0.378257
0.380563
0.382205
0.385254
0.388958
0.393454
0.398734
0.404787
0.411594
0.419137
0.427384
0.436288
0.445778
0.455764
0.466134
0.47674
0.48738
0.497778
0.507553
0.516155
0.522812
0.526516
0.252435
0.251293
0.253017
0.253897
0.255803
0.258135
0.260968
0.264288
0.268075
0.272306
0.276954
0.281978
0.287314
0.292879
0.298571
0.304266
0.309799
0.314946
0.319414
0.322808
0.32458
0.323982
0.319997
0.124949
0.123619
0.124568
0.124735
0.12548
0.126423
0.127577
0.12892
0.130426
0.132067
0.133806
0.135589
0.137342
0.138975
0.140382
0.141421
0.141908
0.141606
0.140216
0.13734
0.132453
0.124865
0.113664
-0.0112911
-0.0134106
-0.0132807
-0.0139032
-0.0144192
-0.0150239
-0.0157415
-0.0166025
-0.0176402
-0.018895
-0.0204202
-0.0222842
-0.0245712
-0.0273823
-0.0308443
-0.0351192
-0.0404117
-0.0469766
-0.055134
-0.0652873
-0.0779421
-0.0937366
-0.113482
849.722
833.089
446.229
269.612
981.723
958.895
914.25
611.559
1057.15
1044.22
1034.04
1016.67
1098.47
1094.29
1092.26
1092.96
1138.24
1144.59
1150
1156.41
560.757
731.278
902.107
1042.57
7.31885
23.8508
66.8874
135.085
3.67254
3.77384
3.89853
4.08778
3.62662
3.75193
3.8752
4.0043
3.7087
3.83276
3.9543
4.07476
3.8547
4.00002
4.57871
5.20947
4.8832
4.98166
5.05514
5.01231
4.10302
4.19615
4.13751
4.05219
3.83641
3.90168
3.9713
4.04362
3.85492
3.92214
3.99089
4.06068
3.85896
3.92462
3.99223
4.06142
3.84587
3.91152
3.9791
4.0485
3.81889
3.88497
3.95307
4.02313
3.77871
3.84538
3.9142
3.98515
3.72582
3.79311
3.86268
3.93456
3.66033
3.72813
3.79837
3.8711
3.58209
3.65021
3.72092
3.79434
3.49084
3.55898
3.62988
3.70368
3.38625
3.45401
3.52468
3.59841
3.26797
3.33483
3.40472
3.4778
3.13572
3.20102
3.26941
3.34106
2.98935
3.0523
3.11831
3.18756
2.82903
2.88873
2.95135
3.01706
2.65531
2.71082
2.76897
2.82994
2.46918
2.5196
2.57226
2.62729
2.27219
2.31673
2.36298
2.41102
2.06626
2.10437
2.14358
2.18387
1.85348
1.88493
1.91684
1.94908
1.63591
1.66079
1.68555
1.70994
1.41564
1.43425
1.45227
1.46941
1.19404
1.20683
1.21863
1.22919
0.970898
0.978357
0.984528
0.989142
0.746573
0.749171
0.750289
0.749669
0.525819
0.524006
0.520685
0.51564
0.313451
0.307871
0.300812
0.292094
0.1019
0.0929501
0.0824966
0.0703585
-0.131677
-0.144751
-0.159355
-0.175667
265.312
264.753
264.268
264.263
264.197
263.656
263.437
263.265
263.122
262.853
262.701
262.567
262.423
262.336
262.286
262.262
262.257
262.256
262.246
333.965
297.012
264.41
264.207
263.896
263.506
263.276
263.14
263.043
262.664
262.518
262.473
262.273
262.19
262.169
262.163
262.173
262.181
262.174
850.538
803.897
265.029
293.789
306.073
263.469
262.988
262.573
262.775
262.502
262.47
262.271
261.96
261.983
262.027
262.044
262.07
262.091
262.088
1083.86
1117.22
764.293
761.999
890.653
528.666
353.992
457.654
323.125
262.332
261.054
262.129
261.94
261.733
261.777
261.863
261.933
261.976
261.985
1168.02
1179.01
1192.36
1168.24
1175.2
1192.76
1087.68
1070.6
1084.33
795.625
632.872
409.546
260.907
260.601
261.327
261.578
261.769
261.838
261.9
1186.08
1240.15
1256.42
1263.89
1267.52
1275.69
1273.35
1251.73
1271.73
1305.45
1262.52
1213.96
1172.13
655.286
292.972
261.537
261.654
261.767
261.921
296.683
583.733
821.347
985.655
1086.96
1152.48
1205.6
1268.76
1335.04
1342.78
1348.28
1364.44
1404.96
1436.17
1023.45
316.76
261.593
261.589
261.901
4.48488
6.4202
31.702
80.5285
139.361
197.148
256.747
332.581
476.159
688.144
966.852
1381.36
1467.72
1517.28
1571.53
1002.45
294.332
259.549
261.541
4.23082
4.5542
5.08322
6.02912
5.74343
5.3273
5.24823
5.2341
5.36701
9.423
45.21
210.964
758.559
1550.58
1621.62
1659.85
890.853
280.403
274.342
4.26791
4.51111
5.19798
6.319
5.78029
5.09591
5.13551
5.1248
5.13655
5.23952
5.4776
6.15884
9.37681
449.051
1552.34
1703.59
1639.44
780.908
330.885
5.43857
5.64154
5.82334
5.50357
4.94084
5.02419
5.12841
5.1963
5.26714
5.37506
5.5174
5.69131
6.07809
8.85918
711.992
1718.08
1846.55
1479.45
531.795
4.98339
5.14223
4.88417
4.67698
4.84983
5.02158
5.16134
5.27828
5.39546
5.52942
5.68668
5.8571
6.01434
6.5235
9.84414
1247.93
1931.91
1887.72
760.852
4.15574
4.32285
4.49633
4.6795
4.86502
5.04059
5.19975
5.35188
5.50912
5.68028
5.87441
6.0955
6.33234
6.69883
7.81514
623.741
1925.54
1845.26
724.705
4.16544
4.33838
4.51725
4.70189
4.88696
5.06801
5.24532
5.42453
5.61331
5.81818
6.04672
6.30758
6.60424
6.99152
7.51813
323.422
1827.8
1635.85
582.693
4.17944
4.3525
4.53239
4.71771
4.90634
5.09723
5.29116
5.49182
5.70476
5.9371
6.18845
6.46892
6.77225
7.12148
7.49461
206.221
1777.26
1366.04
463.533
4.17992
4.35441
4.53649
4.72556
4.92079
5.12203
5.33047
5.54888
5.78079
6.02888
6.34179
6.63713
6.8889
7.2103
7.53663
130.465
1711.22
1218.74
396.759
4.16793
4.34511
4.53097
4.7253
4.92789
5.1392
5.36045
5.59335
5.83976
6.10062
6.42487
6.75151
7.05758
7.33214
7.67802
68.4171
1626.05
1144.11
361.131
4.144
4.32451
4.5149
4.71512
4.92534
5.14633
5.37887
5.62362
5.88097
6.15154
6.43595
6.81856
7.13131
7.40767
7.74296
16.082
1667.34
1036.33
342.063
4.10782
4.29201
4.48729
4.69366
4.91151
5.14192
5.3846
5.63919
5.90544
6.18261
6.47195
6.8076
7.17575
7.48266
7.85505
7.89878
1614.22
1065.71
332.609
4.05913
4.24706
4.44741
4.6605
4.8864
5.12516
5.37726
5.64057
5.91353
6.19869
6.49079
6.79669
7.19042
7.49371
7.90313
7.83241
1243.94
1274.83
354.9
3.99743
4.18893
4.39418
4.61348
4.84701
5.09518
5.35751
5.62997
5.91085
6.20174
6.50135
6.80789
7.14787
7.49446
7.95599
8.12623
712.736
1283.21
413.44
3.92212
4.11679
4.32666
4.55218
4.79372
5.05191
5.32613
5.61106
5.90344
6.20488
6.51111
6.82203
7.15856
7.4752
7.99447
8.5343
159.526
1279.86
438.416
3.83239
4.02956
4.24354
4.47513
4.72521
4.99443
5.28229
5.58491
5.89619
6.2128
6.53465
6.85852
7.21285
7.55134
7.98034
8.66789
7.66456
884.254
1042.05
3.72732
3.92594
4.14312
4.38021
4.63912
4.92158
5.22726
5.55343
5.89071
6.23372
6.58371
6.9434
7.34719
7.74311
8.15135
8.82691
8.42581
374.773
1205.5
3.60586
3.80443
4.02336
4.26468
4.53186
4.83055
5.15919
5.51547
5.88542
6.26086
6.65338
7.0852
7.56475
8.02573
8.4372
8.77773
9.44117
553.477
1344.58
3.4669
3.66329
3.88172
4.12515
4.39902
4.71205
5.0626
5.45432
5.86534
6.26241
6.68878
7.22333
7.76879
8.26015
8.66019
8.87969
142.674
1100.16
1396.81
3.30937
3.50056
3.71506
3.957
4.23477
4.55672
4.92501
5.34571
5.79371
6.19309
6.64496
7.29227
7.82506
8.24699
14.2161
379.451
403.654
1178.68
1328.43
3.13266
3.31474
3.52021
3.75446
4.02946
4.35444
4.72704
5.16165
5.63713
6.03126
6.50893
7.14491
7.45349
60.5612
583.568
775.081
705.429
959.887
1268.57
2.93701
3.10563
3.29585
3.51422
3.77347
4.08004
4.42933
4.86126
5.3479
5.72434
6.01895
112.367
552.548
781.814
793.763
784.403
766.293
334.271
1256.81
2.72358
2.87441
3.04344
3.23725
3.46581
3.73057
4.02109
4.42662
4.93636
5.52091
159.035
780.277
803.678
810.339
815.691
805.443
711.262
33.6209
1034.37
2.4945
2.62349
2.76589
2.92591
3.11465
3.32899
3.54528
3.88417
4.87116
11.475
394.66
636.034
634.166
651.025
466.878
306.885
771.979
-5.46361
193.829
2.25311
2.35711
2.46802
2.58586
2.72775
2.88267
3.03293
3.24652
44.475
143.141
162.653
61.4933
25.206
24.5252
-0.668989
1.40985
497.026
12.3061
25.419
2.00355
2.08116
2.15764
2.22809
2.30924
2.38004
2.46174
2.63093
36.944
112.225
19.2857
0.711573
-1.69688
-2.35951
-2.86479
-0.968681
77.3198
7.48953
5.90886
1.75014
1.80239
1.84598
1.87055
1.8828
1.84704
1.77201
1.74798
8.1623
118.9
46.6006
-1.6774
-2.04286
-2.46791
-2.47234
1.96772
1.56204
-1.34617
-0.382467
1.49658
1.52662
1.5431
1.53201
1.49122
1.37125
1.1881
0.788093
29.2909
234.105
71.9192
-1.96255
-2.23807
-2.43977
-2.21383
2.69828
-0.894821
-5.87073
-3.68125
1.24468
1.25598
1.25139
1.21674
1.14867
1.01157
0.88523
0.356366
69.3509
239.844
109.263
-2.11708
-2.32283
-2.52657
-2.39571
-1.32715
-2.85748
-7.74274
-5.77005
0.994119
0.989237
0.966802
0.913088
0.826642
0.702155
0.583888
0.349334
25.1996
250.944
152.756
-1.08341
-2.36028
-2.77246
-2.89372
-3.02234
-3.41544
-7.03242
-5.63331
0.745536
0.726873
0.689095
0.617812
0.508775
0.35092
0.0684607
-0.005619
-0.0697952
261.801
132.551
-2.001
-2.42873
-3.17609
-3.49348
-3.86607
-3.34518
-1.18906
-3.16685
0.504067
0.474471
0.425383
0.344025
0.221578
0.0113292
-0.403291
-0.649303
-1.86484
319.122
223.532
2.978
-2.57936
-3.57198
-4.01996
-4.53989
-3.51922
2.90471
-0.992205
0.274358
0.236287
0.179608
0.0957441
-0.0227515
-0.215693
-0.564502
-1.16556
78.8956
390.825
401.612
54.3423
-2.08994
-3.79616
-4.22103
-4.92424
-3.86145
4.20074
-0.172213
0.0467759
0.00112307
-0.0619614
-0.148567
-0.263469
-0.41483
-0.589229
-0.786331
56.0975
414.679
384.347
198.034
-0.993228
-3.70354
-3.44944
-4.39919
-3.19563
4.23469
-0.293712
-0.2062
-0.261157
-0.332212
-0.424186
-0.541268
-0.698266
-0.897899
-1.17248
-2.21447
-1.63343
218.443
94.0381
-1.25611
-2.00849
-1.70207
-1.94025
-1.03166
2.44818
-0.430315
)
;

boundaryField
{
    leftWall
    {
        type            fixedFluxPressure;
        gradient        uniform 0;
        value           nonuniform List<scalar> 
50
(
1000.52
999.413
997.147
993.935
990.058
985.802
981.502
977.506
971.775
968.739
972.939
980.835
387.774
3.0862
3.073
3.04148
3.00567
2.97206
2.93467
2.89329
2.84798
2.79866
2.74527
2.68786
2.62646
2.56113
2.49189
2.41876
2.34173
2.26081
2.17602
2.08737
1.99493
1.89874
1.7989
1.69553
1.58876
1.47878
1.36577
1.24994
1.13146
1.01059
0.887739
0.763127
0.636429
0.507727
0.37909
0.252435
0.124949
-0.0112911
)
;
    }
    rightWall
    {
        type            fixedFluxPressure;
        gradient        uniform 0;
        value           nonuniform List<scalar> 
50
(
262.386
262.382
262.375
262.364
262.35
262.333
262.312
262.288
262.246
262.174
262.088
261.985
261.9
261.921
261.901
261.541
274.342
330.885
531.795
760.852
724.705
582.693
463.533
396.759
361.131
342.063
332.609
354.9
413.44
438.416
1042.05
1205.5
1344.58
1396.81
1328.43
1268.57
1256.81
1034.37
193.829
25.419
5.90886
-0.382467
-3.68125
-5.77005
-5.63331
-3.16685
-0.992205
-0.172213
-0.293712
-0.430315
)
;
    }
    lowerWall
    {
        type            fixedFluxPressure;
        gradient        uniform 0;
        value           nonuniform List<scalar> 
62
(
1000.52
1003.61
1012.38
1019.09
1020.44
1016.28
1009.68
1003.51
999.288
997.575
998.679
1002.92
1010.69
1022.63
1039.21
1060.67
1086.7
1114.92
1138.79
1148.41
1126.56
1106.04
1152.93
1152.93
1146.99
1148.59
1163.65
1182.98
1184.61
1163.85
1117.61
849.722
833.089
446.229
269.612
264.709
264.719
264.737
264.763
264.842
264.993
265.086
265.069
264.709
264.616
264.458
264.293
264.047
263.846
263.635
263.428
263.23
263.047
262.887
262.75
262.638
262.551
262.487
262.444
262.416
262.399
262.386
)
;
    }
    atmosphere
    {
        type            totalPressure;
        rho             rho;
        psi             none;
        gamma           1;
        p0              uniform 0;
        value           nonuniform List<scalar> 
46
(
-0.0877197
-0.0913713
-0.091337
-0.0924564
-0.0936998
-0.0952262
-0.097064
-0.0992452
-0.10181
-0.104811
-0.108312
-0.11239
-0.11714
-0.12268
-0.129152
-0.13673
-0.145634
-0.156142
-0.168592
-0.183396
-0.201064
-0.222227
-0.247662
-0.270177
-0.286109
-0.303574
-0.322782
-0.358311
-0.420055
-0.497169
-0.593016
-0.706301
-0.839378
-0.922579
-1.27752
-1.71282
-0.855713
0
0
-0.854209
-0.0255795
0
0
0
0
0
)
;
    }
    defaultFaces
    {
        type            empty;
    }
}


// ************************************************************************* //
