/*--------------------------------*- C++ -*----------------------------------*\
| =========                 |                                                 |
| \\      /  F ield         | OpenFOAM: The Open Source CFD Toolbox           |
|  \\    /   O peration     | Version:  2206                                  |
|   \\  /    A nd           | Website:  www.openfoam.com                      |
|    \\/     M anipulation  |                                                 |
\*---------------------------------------------------------------------------*/
FoamFile
{
    version     2.0;
    format      ascii;
    arch        "LSB;label=32;scalar=64";
    class       volScalarField;
    location    "0.125";
    object      p;
}
// * * * * * * * * * * * * * * * * * * * * * * * * * * * * * * * * * * * * * //

dimensions      [1 -1 -2 0 0 0 0];

internalField   nonuniform List<scalar> 
2268
(
2983.06
2988.05
2993.09
2999.55
3008.82
3021.41
3037.78
3058.63
3084.96
3118.01
3159.31
3210.74
3274.56
3353.39
3450.06
3567.43
3706.86
3867.13
4044.31
4230.49
4409.24
4562.62
4688.94
2782.02
2786.44
2790.59
2795.91
2803.6
2814.06
2827.65
2845.02
2867.07
2894.93
2930.06
2974.32
3030.05
3100.13
3187.82
3296.55
3430.47
3593.99
3791.35
4028.21
4300.36
4580.77
4829.23
2560.34
2563.68
2566.19
2569.31
2573.93
2580.21
2588.36
2598.8
2612.16
2629.22
2651.12
2679.36
2716.11
2764.43
2828.55
2914.42
3030.62
3186.82
3383.1
3639.04
3963.85
4313.98
4656.89
2320.98
2322.86
2323.15
2323.25
2323.64
2324.13
2324.68
2325.33
2326.16
2327.27
2328.82
2331.08
2334.55
2340.07
2348.6
2362.03
2385.44
2429.37
2517.27
2635.48
2789.44
3070.57
3454.13
2068.13
2068.3
2066.14
2062.85
2058.43
2052.39
2044.34
2033.86
2020.34
2002.99
1980.68
1951.86
1914.52
1865.57
1799.6
1710.36
1590.42
1414.66
1129.8
836.718
783.036
1035.66
1405.57
1806.84
1805.29
1800.81
1794.31
1785.31
1773.08
1756.98
1736.15
1709.41
1675.21
1631.38
1575.03
1502.39
1407.39
1281.11
1116.43
893.602
556.782
205.783
143.777
186.297
240.109
326.693
1542.67
1539.67
1533.41
1524.41
1511.85
1494.9
1472.77
1444.36
1408.18
1362.3
1304.14
1230.36
1136.84
1016.47
862.765
670.385
402.027
100.296
30.6683
29.3001
36.6102
47.4059
75.7815
1280.5
1276.55
1269.34
1258.93
1244.4
1224.95
1199.75
1167.67
1127.21
1076.5
1013
933.817
835.172
710.635
559.505
370.312
122.288
10.937
3.82597
3.36608
5.58052
8.6258
17.2991
-1.43001
-1.41923
-1.40273
-1.37984
-1.35224
-1.32153
-1.2892
-1.25651
-1.22455
-1.19412
-1.16583
-1.14012
-1.1173
-1.09755
-1.081
-1.06772
-1.05774
-1.05108
-1.04775
-1.61782
-1.60725
-1.58925
-1.56442
-1.53495
-1.50251
-1.46867
-1.43475
-1.40183
-1.37068
-1.34188
-1.31581
-1.29275
-1.27285
-1.25622
-1.24289
-1.2329
-1.22623
-1.2229
-1.81688
-1.80494
-1.78376
-1.75457
-1.72118
-1.68516
-1.64825
-1.61187
-1.57705
-1.5445
-1.51471
-1.48799
-1.4645
-1.44436
-1.42759
-1.41421
-1.40419
-1.39752
-1.39419
-2.0294
-2.01374
-1.98689
-1.95039
-1.91063
-1.86891
-1.82728
-1.78721
-1.74964
-1.71512
-1.68399
-1.65639
-1.63237
-1.61194
-1.59503
-1.5816
-1.57158
-1.56493
-1.56162
-2.26112
-2.23641
-2.19901
-2.15234
-2.10262
-2.05266
-2.00458
-1.9597
-1.91869
-1.88182
-1.84914
-1.82061
-1.79608
-1.77541
-1.75844
-1.74503
-1.73507
-1.72847
-1.72519
-2.51479
-2.47511
-2.42173
-2.35874
-2.29526
-2.23442
-2.1783
-2.12775
-2.08291
-2.04363
-2.00949
-1.98017
-1.95531
-1.93458
-1.9177
-1.90444
-1.89464
-1.88817
-1.88496
-2.84183
-2.75843
-2.65851
-2.56787
-2.48547
-2.41107
-2.34573
-2.28918
-2.2407
-2.19948
-2.16423
-2.13455
-2.10975
-2.08928
-2.07275
-2.05985
-2.05035
-2.04411
-2.04101
-3.14672
-2.97814
-2.88199
-2.77025
-2.66672
-2.57746
-2.50294
-2.44121
-2.39009
-2.34757
-2.31247
-2.28329
-2.25915
-2.23942
-2.2236
-2.21131
-2.20231
-2.1964
-2.19347
1078.29
1073.79
1066.54
1055.9
1041.06
1021.33
995.946
963.877
923.75
873.94
812.095
736.103
642.177
525.535
389.818
206.8
14.9027
-0.402042
-1.34881
-1.19015
-0.510208
-1.1453
-3.86194
933.351
928.578
921.534
911.054
896.463
877.175
852.49
821.485
782.937
735.411
676.788
605.476
517.422
410.619
287.01
115.837
1.04032
-2.03287
-2.58283
-2.50851
-2.47051
-2.93129
-2.8151
790.928
786.07
779.437
769.426
755.56
737.333
714.143
685.205
649.481
605.756
552.205
487.65
407.805
313.694
199.821
47.2135
-0.587542
-2.16456
-2.63659
-2.77301
-3.15493
-4.63448
-5.87106
651.092
646.333
640.33
631.063
618.32
601.679
580.651
554.61
522.732
484.052
437.092
380.976
311.563
232.032
127.593
8.48111
-1.20127
-1.88684
-2.12046
-2.28099
-2.3965
-5.06979
-8.81726
514.248
509.616
504.421
496.089
484.735
470.026
451.596
428.989
401.6
368.737
329.304
282.665
225.485
161.47
72.6109
0.482384
-0.812957
-1.16651
-1.31113
-1.56069
-1.27113
-3.86656
-9.34549
380.106
375.424
371.083
363.74
353.888
341.249
325.595
306.637
284.004
257.319
225.879
189.395
145.875
97.9879
33.8938
0.195288
-0.0965305
-0.269185
-0.440614
-0.718599
-0.159882
-1.42925
-7.07768
247.143
242.546
239.205
232.971
224.826
214.496
201.936
187.06
169.803
150.188
127.903
103.391
76.2409
47.5838
13.9329
-0.0482389
0.611793
0.566787
0.235558
-0.0309844
0.414838
-0.109014
-2.97856
116.867
112.433
110.381
105.813
100.017
92.9427
84.8018
75.6674
65.761
55.4866
44.9659
35.1725
26.3598
18.4606
7.92543
-0.459637
0.827601
1.02021
0.443511
0.0831535
0.356218
0.125822
-1.22379
23.0598
20.9346
20.4712
18.8566
16.7897
14.5791
12.1593
9.53295
6.87993
4.25001
1.68586
-0.737859
-3.17183
-3.50181
-3.39191
-2.92989
-0.343187
0.273709
-0.201868
-0.499948
-0.3952
-0.424229
-1.04343
-2.42489
-2.45266
-2.48639
-2.5476
-2.60522
-2.65166
-2.70768
-2.785
-2.88609
-3.01862
-3.18593
-3.3873
-3.56436
-3.6616
-3.71035
-3.743
-3.53261
-2.31085
-1.55999
-1.59993
-1.33967
-1.15892
-1.36585
-2.59966
-2.6095
-2.637
-2.66904
-2.71093
-2.7575
-2.81472
-2.88755
-2.98134
-3.10035
-3.24912
-3.43569
-3.6512
-3.87706
-4.08975
-4.20152
-4.33165
-3.63527
-3.25585
-2.86287
-2.17539
-1.79234
-1.75266
-2.71941
-2.72819
-2.74789
-2.77376
-2.80841
-2.85054
-2.90301
-2.96899
-3.05353
-3.16224
-3.30435
-3.50029
-3.78032
-4.15667
-4.57628
-4.82551
-4.85301
-4.95508
-5.09741
-3.81358
-2.75912
-2.25824
-2.08027
-2.82522
-2.8318
-2.84714
-2.86869
-2.89709
-2.9327
-2.97721
-3.03345
-3.10589
-3.20208
-3.33518
-3.53361
-3.85888
-4.36567
-4.97739
-5.44291
-5.52341
-6.17529
-5.72572
-4.11606
-3.08265
-2.56193
-2.32473
-2.91956
-2.9249
-2.93654
-2.95366
-2.97617
-3.00471
-3.04034
-3.08513
-3.14281
-3.2204
-3.33005
-3.50199
-3.81386
-4.33997
-5.00885
-5.65439
-5.99168
-6.12137
-5.27265
-3.98611
-3.1683
-2.71585
-2.49169
-3.00704
-3.01173
-3.02017
-3.03287
-3.0498
-3.07119
-3.09765
-3.13037
-3.17186
-3.22638
-3.30083
-3.41757
-3.63926
-4.02293
-4.49656
-4.92558
-5.22098
-5.1225
-4.4956
-3.63742
-3.0895
-2.77467
-2.61312
-3.09134
-3.09469
-3.10055
-3.10941
-3.12126
-3.13602
-3.15386
-3.17523
-3.20151
-3.23455
-3.27664
-3.33877
-3.45354
-3.64908
-3.89364
-4.11381
-4.22084
-4.0999
-3.71386
-3.27343
-2.98887
-2.8099
-2.71321
-3.17297
-3.17481
-3.17864
-3.18436
-3.19188
-3.20101
-3.21153
-3.22344
-3.23742
-3.25428
-3.27452
-3.30187
-3.34843
-3.42677
-3.5271
-3.60252
-3.5954
-3.48735
-3.28863
-3.09455
-2.96044
-2.8663
-2.81367
-3.2527
-3.25365
-3.25589
-3.2591
-3.26313
-3.26776
-3.27258
-3.27734
-3.28232
-3.28791
-3.29417
-3.30221
-3.31581
-3.33844
-3.36589
-3.37957
-3.35456
-3.27976
-3.17586
-3.07828
-3.0048
-2.95199
-2.92369
-3.33275
-3.33328
-3.33427
-3.3355
-3.3368
-3.33797
-3.33861
-3.33838
-3.3373
-3.33562
-3.33336
-3.33098
-3.33008
-3.33143
-3.33178
-3.32386
-3.29956
-3.25175
-3.19089
-3.13287
-3.08715
-3.05587
-3.04115
-3.4147
-3.41491
-3.41494
-3.41469
-3.41397
-3.41261
-3.41034
-3.40683
-3.40202
-3.39601
-3.38884
-3.38074
-3.37243
-3.36405
-3.35384
-3.33882
-3.31628
-3.28471
-3.24794
-3.21293
-3.18525
-3.16767
-3.16161
-3.49905
-3.49892
-3.49828
-3.497
-3.49492
-3.49187
-3.48772
-3.48226
-3.4754
-3.46718
-3.4577
-3.44713
-3.43587
-3.42398
-3.41065
-3.39464
-3.37516
-3.35234
-3.32872
-3.30753
-3.29172
-3.28313
-3.28278
-3.58573
-3.5853
-3.58421
-3.58229
-3.57936
-3.57533
-3.57014
-3.56369
-3.55592
-3.54686
-3.53663
-3.5254
-3.51341
-3.50081
-3.48741
-3.47285
-3.45713
-3.44078
-3.42525
-3.41227
-3.40371
-3.4007
-3.40389
-3.67485
-3.67423
-3.67283
-3.67052
-3.66715
-3.66266
-3.65704
-3.65029
-3.64238
-3.63335
-3.62334
-3.61251
-3.6011
-3.58927
-3.57711
-3.56471
-3.55238
-3.54077
-3.53056
-3.52291
-3.5189
-3.5193
-3.52454
-3.7667
-3.76598
-3.76439
-3.76185
-3.7583
-3.7537
-3.74807
-3.74145
-3.73386
-3.72536
-3.71608
-3.70619
-3.69592
-3.68548
-3.67508
-3.66496
-3.65548
-3.64716
-3.64061
-3.63652
-3.63548
-3.638
-3.64437
-3.86141
-3.86065
-3.85897
-3.85634
-3.85278
-3.84829
-3.8429
-3.83666
-3.82963
-3.82189
-3.81357
-3.80484
-3.79591
-3.78701
-3.77839
-3.77034
-3.76318
-3.75734
-3.75332
-3.75155
-3.75242
-3.75622
-3.76314
-3.95881
-3.95804
-3.95636
-3.95377
-3.95034
-3.94609
-3.94107
-3.93534
-3.92898
-3.92208
-3.91476
-3.9072
-3.8996
-3.89217
-3.88517
-3.87886
-3.87356
-3.8696
-3.86735
-3.86712
-3.86917
-3.87369
-3.88078
-4.05852
-4.05776
-4.05616
-4.05372
-4.05051
-4.0466
-4.04202
-4.03686
-4.03118
-4.02511
-4.01876
-4.01229
-4.00589
-3.99977
-3.99415
-3.98929
-3.98544
-3.98288
-3.98186
-3.98265
-3.98544
-3.99031
-3.99733
-4.16013
-4.15941
-4.15794
-4.15571
-4.1528
-4.14927
-4.14517
-4.14057
-4.13558
-4.13028
-4.12481
-4.11932
-4.11398
-4.10898
-4.10452
-4.10082
-4.09809
-4.09657
-4.09644
-4.09792
-4.10109
-4.10606
-4.11285
-4.26332
-4.26266
-4.26133
-4.25935
-4.25676
-4.25363
-4.25
-4.24597
-4.24161
-4.23703
-4.23235
-4.22772
-4.22329
-4.21923
-4.21572
-4.21294
-4.21108
-4.21032
-4.21081
-4.2127
-4.21607
-4.22099
-4.22745
-4.36788
-4.36728
-4.36611
-4.36437
-4.3621
-4.35934
-4.35617
-4.35266
-4.34888
-4.34495
-4.34098
-4.33709
-4.33344
-4.33016
-4.32742
-4.32537
-4.32417
-4.32395
-4.32486
-4.32699
-4.33041
-4.33515
-4.34123
-4.47368
-4.47314
-4.47211
-4.47058
-4.4686
-4.4662
-4.46345
-4.4604
-4.45715
-4.45379
-4.45042
-4.44717
-4.44417
-4.44153
-4.4394
-4.43792
-4.43721
-4.43739
-4.43856
-4.44079
-4.44415
-4.44865
-4.45429
-4.58061
-4.58013
-4.57922
-4.57789
-4.57616
-4.57407
-4.57168
-4.56904
-4.56625
-4.56338
-4.56053
-4.55781
-4.55533
-4.55321
-4.55157
-4.55052
-4.55016
-4.5506
-4.5519
-4.55414
-4.55735
-4.56155
-4.56674
-4.68858
-4.68815
-4.68735
-4.68618
-4.68466
-4.68284
-4.68075
-4.67847
-4.67606
-4.6736
-4.67118
-4.6689
-4.66685
-4.66513
-4.66386
-4.66312
-4.663
-4.66358
-4.66493
-4.66709
-4.67009
-4.67395
-4.67866
-4.79749
-4.79711
-4.7964
-4.79536
-4.79402
-4.79242
-4.79059
-4.78859
-4.7865
-4.78437
-4.7823
-4.78036
-4.77864
-4.77724
-4.77623
-4.7757
-4.77572
-4.77636
-4.77767
-4.77968
-4.78243
-4.78592
-4.79013
-4.90724
-4.9069
-4.90626
-4.90533
-4.90414
-4.90271
-4.90109
-4.89933
-4.89749
-4.89563
-4.89383
-4.89215
-4.89068
-4.88949
-4.88866
-4.88825
-4.88834
-4.88896
-4.89016
-4.89198
-4.89443
-4.89752
-4.90122
-5.01771
-5.01741
-5.01683
-5.016
-5.01492
-5.01363
-5.01218
-5.0106
-5.00896
-5.00731
-5.0057
-5.00422
-5.00292
-5.00188
-5.00115
-5.00079
-5.00086
-5.00141
-5.00246
-5.00404
-5.00616
-5.00883
-5.01203
-5.12876
-5.12849
-5.12797
-5.12721
-5.12623
-5.12507
-5.12375
-5.12232
-5.12083
-5.11932
-5.11787
-5.11652
-5.11533
-5.11437
-5.11368
-5.11332
-5.11333
-5.11374
-5.1146
-5.11591
-5.11768
-5.11991
-5.12259
-5.24026
-5.24002
-5.23954
-5.23885
-5.23795
-5.23688
-5.23567
-5.23436
-5.23298
-5.2316
-5.23025
-5.22899
-5.22787
-5.22694
-5.22625
-5.22583
-5.22574
-5.22599
-5.22662
-5.22762
-5.22902
-5.23081
-5.23296
-5.35225
-5.35205
-5.3516
-5.35096
-5.35013
-5.34913
-5.34799
-5.34676
-5.34546
-5.34415
-5.34286
-5.34165
-5.34055
-5.33961
-5.33887
-5.33837
-5.33813
-5.33819
-5.33856
-5.33924
-5.34026
-5.34159
-5.34323
-5.46477
-5.4646
-5.46419
-5.46358
-5.46279
-5.46184
-5.46075
-5.45956
-5.4583
-5.45702
-5.45576
-5.45455
-5.45342
-5.45243
-5.45161
-5.45097
-5.45056
-5.45039
-5.45048
-5.45082
-5.45144
-5.45231
-5.45343
-5.57752
-5.57741
-5.57703
-5.57647
-5.57572
-5.5748
-5.57375
-5.57259
-5.57137
-5.5701
-5.56884
-5.56761
-5.56644
-5.56537
-5.56444
-5.56365
-5.56305
-5.56263
-5.56242
-5.56242
-5.56262
-5.56303
-5.56363
-5.69084
-5.6909
-5.69056
-5.69002
-5.68928
-5.68839
-5.68735
-5.68621
-5.68498
-5.68371
-5.68242
-5.68113
-5.67989
-5.67871
-5.67762
-5.67665
-5.67581
-5.67511
-5.67456
-5.67418
-5.67394
-5.67387
-5.67393
-7.72412
-5.43842
-5.24375
-4.72867
-3.74032
-5.63505
-5.89899
-5.08893
-7.05244
-7.67623
-7.28276
-5.84388
-9.8069
-9.40404
-8.27111
-6.24385
-10.1044
-9.61658
-7.9918
-6.17347
-9.1827
-8.50917
-6.87043
-5.49052
-5.6556
-6.0883
-5.29856
-4.53583
-2.87317
-3.70685
-3.81847
-3.65437
-1.91822
-2.61495
-2.95197
-3.0684
-1.78404
-2.22154
-2.53429
-2.73651
-1.89363
-2.1365
-2.38038
-2.58242
-2.07031
-2.19377
-2.36828
-2.53959
-2.24915
-2.30642
-2.42685
-2.56394
-2.41077
-2.435
-2.51903
-2.62772
-2.54966
-2.56407
-2.62672
-2.71416
-2.67512
-2.68989
-2.74128
-2.81337
-2.79593
-2.81433
-2.85887
-2.91818
-2.9185
-2.93904
-2.97889
-3.03116
-3.04307
-3.06406
-3.09962
-3.14524
-3.16782
-3.18847
-3.22028
-3.26013
-3.29166
-3.31164
-3.34023
-3.37524
-3.41426
-3.43334
-3.45911
-3.49004
-3.53554
-3.55352
-3.57679
-3.60425
-3.65545
-3.67224
-3.69328
-3.71776
-3.77398
-3.78956
-3.80859
-3.83049
-3.89119
-3.90558
-3.92282
-3.94246
-4.00719
-4.02042
-4.03605
-4.05369
-4.1221
-4.13424
-4.14839
-4.16426
-4.23605
-4.24714
-4.25994
-4.27421
-4.34916
-4.35926
-4.37081
-4.38363
-4.46155
-4.4707
-4.48109
-4.49257
-4.57333
-4.58157
-4.59087
-4.6011
-4.68458
-4.69194
-4.70022
-4.70929
-4.7954
-4.80191
-4.8092
-4.81718
-4.90585
-4.91153
-4.91789
-4.92483
-5.01601
-5.02089
-5.02633
-5.03228
-5.12594
-5.13002
-5.13459
-5.13957
-5.23566
-5.239
-5.24271
-5.24676
-5.3453
-5.34787
-5.35075
-5.35389
-5.45488
-5.4567
-5.45876
-5.461
-5.56446
-5.56555
-5.56679
-5.56814
-5.67414
-5.67449
-5.67491
-5.67536
-3.73121
-3.31112
-3.08529
-2.92719
-2.79727
-2.69493
-2.61473
-2.55101
-2.49966
-2.45781
-2.42364
-2.39558
-2.37256
-2.35385
-2.33891
-2.32735
-2.3189
-2.31336
-2.31062
-4.06534
-3.51118
-3.20889
-3.03085
-2.88086
-2.77184
-2.68978
-2.62621
-2.57578
-2.53514
-2.50222
-2.47535
-2.45343
-2.43566
-2.42151
-2.41058
-2.40259
-2.39737
-2.39478
-4.42
-3.66568
-3.327
-3.10325
-2.94829
-2.83859
-2.75788
-2.69648
-2.64805
-2.60958
-2.57853
-2.55328
-2.53273
-2.51611
-2.5029
-2.4927
-2.48526
-2.48038
-2.47797
-4.5743
-3.76672
-3.38033
-3.14916
-2.99876
-2.89464
-2.81888
-2.76192
-2.71679
-2.68127
-2.65268
-2.62946
-2.61057
-2.5953
-2.58316
-2.57379
-2.56695
-2.56248
-2.56026
-4.53348
-3.72856
-3.37619
-3.16809
-3.03324
-2.94053
-2.87304
-2.82145
-2.78204
-2.75042
-2.72485
-2.70403
-2.68706
-2.67333
-2.66239
-2.65394
-2.64777
-2.64372
-2.64172
-4.24944
-3.60395
-3.32732
-3.16361
-3.05425
-2.97787
-2.9215
-2.87823
-2.8445
-2.81737
-2.79528
-2.77718
-2.76236
-2.75032
-2.74069
-2.73324
-2.72779
-2.72421
-2.72243
-3.83011
-3.43188
-3.25337
-3.14344
-3.06562
-3.00879
-2.96561
-2.93173
-2.90463
-2.88251
-2.86426
-2.84915
-2.83665
-2.82642
-2.8182
-2.81181
-2.80712
-2.80403
-2.80249
-3.41915
-3.25568
-3.1735
-3.11681
-3.07174
-3.03596
-3.00695
-2.98302
-2.96308
-2.94631
-2.93214
-2.92017
-2.91013
-2.9018
-2.89505
-2.88976
-2.88585
-2.88327
-2.88198
-3.10469
-3.10525
-3.10167
-3.09187
-3.0775
-3.06207
-3.0471
-3.03318
-3.02056
-3.00927
-2.99928
-2.99053
-2.983
-2.97662
-2.97137
-2.96721
-2.9641
-2.96204
-2.961
-2.89396
-2.9926
-3.04668
-3.07459
-3.08648
-3.08944
-3.0876
-3.08327
-3.07777
-3.07188
-3.06603
-3.0605
-3.05548
-3.05106
-3.04731
-3.04427
-3.04198
-3.04043
-3.03965
-2.77493
-2.92222
-3.01329
-3.06876
-3.10148
-3.11999
-3.12978
-3.13421
-3.13539
-3.13462
-3.13276
-3.13036
-3.12778
-3.12527
-3.12301
-3.12108
-3.11958
-3.11855
-3.11802
-2.72717
-2.89149
-3.00259
-3.0762
-3.12425
-3.15515
-3.17471
-3.1868
-3.19397
-3.19793
-3.1998
-3.20035
-3.20011
-3.19944
-3.1986
-3.19776
-3.19703
-3.1965
-3.19621
-2.73143
-2.89453
-3.01332
-3.09726
-3.15565
-3.19577
-3.22313
-3.24163
-3.25401
-3.26217
-3.26743
-3.27071
-3.27265
-3.27372
-3.27423
-3.27441
-3.27442
-3.27436
-3.27431
-2.77198
-2.92458
-3.04296
-3.13126
-3.19578
-3.24227
-3.2755
-3.29913
-3.31587
-3.32766
-3.33591
-3.34165
-3.34558
-3.34825
-3.35001
-3.35115
-3.35185
-3.35224
-3.35242
-2.83709
-2.97539
-3.08851
-3.17695
-3.24428
-3.29467
-3.33202
-3.35956
-3.37979
-3.39461
-3.40544
-3.41333
-3.41904
-3.42315
-3.42606
-3.42808
-3.42942
-3.43022
-3.4306
-2.91878
-3.04175
-3.14704
-3.23282
-3.30046
-3.35276
-3.39272
-3.42304
-3.44595
-3.4632
-3.47618
-3.4859
-3.49316
-3.49854
-3.50247
-3.50528
-3.50719
-3.50838
-3.50894
-3.01202
-3.11968
-3.21595
-3.2973
-3.36349
-3.41614
-3.45745
-3.48956
-3.51439
-3.53352
-3.54822
-3.55946
-3.56803
-3.57451
-3.57933
-3.58283
-3.58526
-3.58678
-3.58752
-3.10879
-3.20589
-3.29298
-3.36893
-3.43249
-3.48435
-3.52598
-3.55905
-3.58514
-3.60562
-3.62163
-3.63409
-3.64373
-3.65113
-3.65671
-3.66081
-3.66368
-3.6655
-3.66638
-3.21192
-3.29695
-3.3762
-3.44644
-3.50662
-3.55685
-3.59802
-3.63136
-3.65813
-3.6795
-3.69645
-3.70983
-3.72032
-3.72846
-3.73466
-3.73926
-3.74251
-3.74458
-3.74558
-3.31794
-3.39265
-3.46398
-3.52871
-3.58511
-3.63314
-3.67325
-3.70631
-3.73328
-3.75512
-3.77268
-3.78671
-3.79783
-3.80653
-3.81324
-3.81824
-3.8218
-3.82407
-3.82518
-3.42566
-3.49148
-3.55547
-3.6147
-3.66726
-3.71273
-3.75136
-3.7837
-3.81046
-3.83242
-3.85029
-3.86473
-3.87627
-3.88539
-3.89246
-3.89778
-3.90158
-3.90402
-3.9052
-3.53429
-3.59243
-3.6498
-3.70371
-3.75241
-3.79518
-3.83203
-3.86331
-3.88954
-3.91132
-3.92925
-3.94386
-3.95565
-3.96504
-3.97236
-3.9779
-3.98187
-3.98443
-3.98568
-3.64331
-3.6948
-3.74622
-3.79518
-3.84004
-3.88005
-3.91494
-3.94493
-3.97038
-3.99174
-4.00949
-4.02409
-4.03596
-4.04547
-4.05294
-4.05862
-4.06271
-4.06535
-4.06664
-3.75238
-3.79811
-3.84422
-3.88861
-3.92978
-3.96696
-3.99982
-4.02834
-4.05282
-4.07356
-4.09095
-4.10536
-4.11717
-4.12669
-4.13421
-4.13995
-4.14409
-4.14677
-4.14809
-3.8613
-3.90202
-3.94338
-3.98358
-4.02126
-4.05566
-4.08637
-4.11337
-4.13671
-4.15669
-4.17356
-4.18765
-4.19926
-4.20868
-4.21615
-4.22188
-4.22603
-4.22872
-4.23004
-3.96995
-4.00629
-4.04341
-4.07977
-4.11417
-4.14587
-4.17445
-4.19976
-4.22192
-4.24102
-4.25724
-4.27088
-4.28218
-4.2914
-4.29875
-4.30441
-4.30851
-4.31119
-4.3125
-4.07828
-4.11075
-4.14407
-4.17692
-4.20825
-4.23736
-4.26383
-4.28746
-4.30824
-4.32646
-4.34192
-4.355
-4.36591
-4.37485
-4.382
-4.38752
-4.39154
-4.39417
-4.39546
-4.18628
-4.21531
-4.24521
-4.27485
-4.30331
-4.32994
-4.35433
-4.37628
-4.39573
-4.41278
-4.42751
-4.43995
-4.45038
-4.45897
-4.46586
-4.4712
-4.4751
-4.47765
-4.47891
-4.29393
-4.3199
-4.34671
-4.3734
-4.39917
-4.42344
-4.44581
-4.46608
-4.48416
-4.50007
-4.51387
-4.52565
-4.53555
-4.54373
-4.55031
-4.55543
-4.55917
-4.56163
-4.56283
-4.40127
-4.42447
-4.44846
-4.47244
-4.49569
-4.51771
-4.53813
-4.55674
-4.57342
-4.58817
-4.60102
-4.61206
-4.62138
-4.62909
-4.63532
-4.64018
-4.64374
-4.64607
-4.64722
-4.50833
-4.529
-4.55041
-4.57187
-4.59277
-4.61265
-4.63118
-4.64814
-4.66342
-4.67699
-4.68887
-4.69911
-4.7078
-4.71501
-4.72086
-4.72541
-4.72876
-4.73096
-4.73205
-4.61512
-4.63348
-4.65251
-4.67163
-4.69031
-4.70815
-4.72484
-4.74019
-4.75408
-4.76647
-4.77735
-4.78676
-4.79476
-4.80145
-4.80687
-4.81111
-4.81422
-4.81627
-4.81728
-4.72169
-4.7379
-4.75472
-4.77165
-4.78824
-4.80412
-4.81905
-4.83282
-4.84533
-4.85652
-4.86638
-4.87494
-4.88224
-4.88835
-4.89333
-4.89722
-4.90009
-4.90197
-4.90291
-4.82806
-4.84227
-4.85702
-4.87189
-4.88648
-4.9005
-4.91371
-4.92594
-4.93708
-4.94707
-4.95591
-4.9636
-4.97018
-4.97569
-4.98019
-4.98373
-4.98632
-4.98804
-4.98889
-4.93428
-4.9466
-4.9594
-4.9723
-4.985
-4.99722
-5.00877
-5.01948
-5.02927
-5.03807
-5.04587
-5.05268
-5.05851
-5.06341
-5.06742
-5.07057
-5.07289
-5.07442
-5.07519
-5.04036
-5.05089
-5.06183
-5.07287
-5.08375
-5.09423
-5.10416
-5.11338
-5.12183
-5.12945
-5.13621
-5.14213
-5.14721
-5.15148
-5.15497
-5.15773
-5.15976
-5.1611
-5.16178
-5.14635
-5.15517
-5.16433
-5.17357
-5.18269
-5.19149
-5.19982
-5.20759
-5.21472
-5.22115
-5.22688
-5.23189
-5.2362
-5.23984
-5.24281
-5.24516
-5.24689
-5.24803
-5.24861
-5.25227
-5.25944
-5.26687
-5.27438
-5.28178
-5.28894
-5.29573
-5.30206
-5.30787
-5.31313
-5.31781
-5.32192
-5.32546
-5.32844
-5.33089
-5.33282
-5.33424
-5.33519
-5.33566
-5.35816
-5.36371
-5.36947
-5.37528
-5.38101
-5.38655
-5.39181
-5.39672
-5.40124
-5.40532
-5.40897
-5.41216
-5.41492
-5.41725
-5.41916
-5.42067
-5.42178
-5.42252
-5.42289
-5.46405
-5.46802
-5.47212
-5.47626
-5.48035
-5.4843
-5.48805
-5.49155
-5.49477
-5.49769
-5.50029
-5.50258
-5.50455
-5.50622
-5.50758
-5.50866
-5.50946
-5.50999
-5.51026
-5.56998
-5.57236
-5.57483
-5.57732
-5.57977
-5.58214
-5.58439
-5.58649
-5.58842
-5.59017
-5.59174
-5.59311
-5.59429
-5.5953
-5.59612
-5.59677
-5.59725
-5.59757
-5.59773
-5.67598
-5.67678
-5.67761
-5.67844
-5.67926
-5.68005
-5.6808
-5.68151
-5.68215
-5.68274
-5.68326
-5.68372
-5.68411
-5.68445
-5.68472
-5.68494
-5.6851
-5.6852
-5.68526
)
;

boundaryField
{
    leftWall
    {
        type            calculated;
        value           nonuniform List<scalar> 
50
(
2983.06
2782.02
2560.34
2320.98
2068.13
1806.84
1542.67
1280.5
1078.29
933.351
790.928
651.092
514.248
380.106
247.143
116.867
23.0598
-2.42489
-2.59966
-2.71941
-2.82522
-2.91956
-3.00704
-3.09134
-3.17297
-3.2527
-3.33275
-3.4147
-3.49905
-3.58573
-3.67485
-3.7667
-3.86141
-3.95881
-4.05852
-4.16013
-4.26332
-4.36788
-4.47368
-4.58061
-4.68858
-4.79749
-4.90724
-5.01771
-5.12876
-5.24026
-5.35225
-5.46477
-5.57752
-5.69084
)
;
    }
    rightWall
    {
        type            calculated;
        value           nonuniform List<scalar> 
50
(
-1.04775
-1.2229
-1.39419
-1.56162
-1.72519
-1.88496
-2.04101
-2.19347
-2.31062
-2.39478
-2.47797
-2.56026
-2.64172
-2.72243
-2.80249
-2.88198
-2.961
-3.03965
-3.11802
-3.19621
-3.27431
-3.35242
-3.4306
-3.50894
-3.58752
-3.66638
-3.74558
-3.82518
-3.9052
-3.98568
-4.06664
-4.14809
-4.23004
-4.3125
-4.39546
-4.47891
-4.56283
-4.64722
-4.73205
-4.81728
-4.90291
-4.98889
-5.07519
-5.16178
-5.24861
-5.33566
-5.42289
-5.51026
-5.59773
-5.68526
)
;
    }
    lowerWall
    {
        type            calculated;
        value           nonuniform List<scalar> 
62
(
3072.58
3077.56
3082.6
3089.07
3098.33
3110.93
3127.29
3148.15
3174.48
3207.53
3248.83
3300.26
3364.08
3442.91
3539.58
3656.94
3796.38
3956.65
4133.83
4320
4498.76
4652.12
4760.23
4688.94
4829.23
4656.89
3454.13
1405.57
326.693
75.7815
17.2991
-7.62493
-5.38726
-5.1926
-4.67752
-1.43001
-1.61782
-1.81688
-2.0294
-2.26112
-2.51479
-2.84183
-3.14672
-1.3405
-1.32971
-1.31322
-1.29032
-1.26273
-1.23202
-1.19968
-1.167
-1.13504
-1.10461
-1.07631
-1.05061
-1.02778
-1.00803
-0.991482
-0.978199
-0.968222
-0.961565
-0.958235
)
;
    }
    atmosphere
    {
        type            calculated;
        value           nonuniform List<scalar> 
46
(
-5.74775
-5.7481
-5.74774
-5.74719
-5.74645
-5.74555
-5.74452
-5.74337
-5.74214
-5.74085
-5.73953
-5.7382
-5.7369
-5.73565
-5.73447
-5.73338
-5.7324
-5.73153
-5.7308
-5.7302
-5.72972
-5.72938
-5.72916
-5.72905
-5.72904
-5.72904
-5.72904
-5.72904
-5.72904
-5.72904
-5.72904
-5.72904
-5.72904
-5.72904
-5.72904
-5.72904
-5.72904
-5.72904
-5.72904
-5.72904
-5.72904
-5.72904
-5.72904
-5.72904
-5.72904
-5.72904
)
;
    }
    defaultFaces
    {
        type            empty;
    }
}


// ************************************************************************* //
