/*--------------------------------*- C++ -*----------------------------------*\
| =========                 |                                                 |
| \\      /  F ield         | OpenFOAM: The Open Source CFD Toolbox           |
|  \\    /   O peration     | Version:  2206                                  |
|   \\  /    A nd           | Website:  www.openfoam.com                      |
|    \\/     M anipulation  |                                                 |
\*---------------------------------------------------------------------------*/
FoamFile
{
    version     2.0;
    format      ascii;
    arch        "LSB;label=32;scalar=64";
    class       volScalarField;
    location    "0.125";
    object      p_rgh;
}
// * * * * * * * * * * * * * * * * * * * * * * * * * * * * * * * * * * * * * //

dimensions      [1 -1 -2 0 0 0 0];

internalField   nonuniform List<scalar> 
2268
(
3072.58
3077.56
3082.6
3089.07
3098.33
3110.93
3127.29
3148.15
3174.48
3207.53
3248.83
3300.26
3364.08
3442.91
3539.58
3656.94
3796.38
3956.65
4133.83
4320
4498.76
4652.12
4760.23
3050.57
3054.98
3059.14
3064.46
3072.15
3082.61
3096.2
3113.57
3135.62
3163.48
3198.61
3242.87
3298.6
3368.68
3456.37
3565.09
3699.02
3862.54
4059.9
4296.51
4568.86
4849.3
5060.53
3007.92
3011.26
3013.77
3016.89
3021.51
3027.8
3035.94
3046.38
3059.74
3076.8
3098.7
3126.94
3163.69
3212.02
3276.13
3362
3478.2
3634.4
3830.68
4086.6
4411.41
4761.53
5097.43
2947.6
2949.47
2949.77
2949.86
2950.25
2950.75
2951.29
2951.95
2952.78
2953.88
2955.43
2957.69
2961.16
2966.68
2975.21
2988.64
3012.05
3055.99
3143.89
3261.71
3375.37
3663.25
4045.73
2873.78
2873.95
2871.78
2868.5
2864.08
2858.03
2849.98
2839.5
2825.99
2808.63
2786.32
2757.51
2720.16
2671.22
2605.25
2516.01
2396.06
2220.28
1933.82
1492.8
1048.16
1400.17
2073.41
2791.52
2789.97
2785.49
2778.99
2769.99
2757.76
2741.66
2720.83
2694.09
2659.88
2616.06
2559.71
2487.07
2392.07
2265.79
2101.11
1878.28
1540.88
815.896
248.951
208.595
303.236
1024.53
2706.38
2703.38
2697.12
2688.12
2675.56
2658.61
2636.48
2608.07
2571.89
2526.02
2467.85
2394.07
2300.55
2180.18
2026.48
1834.1
1565.71
888.062
100.239
37.6587
48.5445
70.4283
726.189
2623.25
2619.3
2612.09
2601.67
2587.14
2567.69
2542.49
2510.42
2469.96
2419.25
2355.74
2276.56
2177.92
2053.38
1902.25
1713.06
1352.34
220.222
11.0398
7.77349
13.949
24.4668
373.607
-1.3405
-1.32971
-1.31322
-1.29032
-1.26273
-1.23202
-1.19968
-1.167
-1.13504
-1.10461
-1.07631
-1.05061
-1.02778
-1.00803
-0.991482
-0.978199
-0.968222
-0.961565
-0.958235
-1.34927
-1.3387
-1.3207
-1.29587
-1.2664
-1.23396
-1.20012
-1.1662
-1.13328
-1.10214
-1.07333
-1.04726
-1.0242
-1.0043
-0.987671
-0.974346
-0.964349
-0.957686
-0.954354
-1.3693
-1.35736
-1.33618
-1.30699
-1.2736
-1.23758
-1.20067
-1.16429
-1.12947
-1.09692
-1.06713
-1.04041
-1.01692
-0.99678
-0.980013
-0.966627
-0.956609
-0.949942
-0.946613
-1.40279
-1.38712
-1.36028
-1.32378
-1.28401
-1.24229
-1.20066
-1.1606
-1.12302
-1.08851
-1.05737
-1.02977
-1.00576
-0.985325
-0.96842
-0.954988
-0.944971
-0.938321
-0.935004
-1.45548
-1.43076
-1.39337
-1.34669
-1.29697
-1.24702
-1.19893
-1.15406
-1.11304
-1.07617
-1.0435
-1.01496
-0.990436
-0.969763
-0.952789
-0.939379
-0.929421
-0.922828
-0.919545
-1.53011
-1.49043
-1.43705
-1.37406
-1.31058
-1.24974
-1.19362
-1.14307
-1.09824
-1.05895
-1.02481
-0.995491
-0.970632
-0.9499
-0.933017
-0.919762
-0.909963
-0.903496
-0.900281
-1.67812
-1.59472
-1.4948
-1.40416
-1.32176
-1.24736
-1.18202
-1.12547
-1.07699
-1.03577
-1.00051
-0.970841
-0.946036
-0.925569
-0.909037
-0.896137
-0.886643
-0.880396
-0.877296
-1.80398
-1.63539
-1.53925
-1.42751
-1.32397
-1.23472
-1.1602
-1.09847
-1.04734
-1.00482
-0.969731
-0.940542
-0.916411
-0.896679
-0.880853
-0.86857
-0.859566
-0.853658
-0.850731
2561.71
2557.21
2549.95
2539.31
2524.47
2504.74
2479.36
2447.29
2407.16
2357.35
2295.51
2219.52
2125.59
2008.95
1873.23
1690.21
784.02
15.3977
2.21216
1.78578
5.71405
16.732
21.0385
2519.07
2514.29
2507.25
2496.77
2482.18
2462.89
2438.21
2407.2
2368.65
2321.13
2262.5
2191.19
2103.14
1996.33
1872.72
1701.51
413.392
1.77234
-0.474534
0.0092428
2.35454
35.9763
-0.789161
2478.95
2474.09
2467.46
2457.45
2443.58
2425.35
2402.16
2373.22
2337.5
2293.77
2240.22
2175.66
2095.81
2001.69
1887.8
1522.58
141.528
0.0796623
-0.757344
-0.388402
2.89473
39.9133
-4.07377
2441.41
2436.65
2430.65
2421.38
2408.64
2392
2370.97
2344.92
2313.04
2274.35
2227.38
2171.25
2101.8
2022.22
1917.65
1004.68
19.2881
0.106165
-0.186523
-0.23521
10.12
40.1035
-6.27241
2406.85
2402.2
2397.01
2388.68
2377.32
2362.6
2344.15
2321.53
2294.1
2261.2
2221.7
2174.96
2117.59
2053.33
1963.75
608.157
1.46138
0.877935
0.683223
0.514654
14.0273
41.2834
7.74434
2374.81
2370.07
2365.73
2358.36
2348.47
2335.77
2320.02
2300.93
2278.1
2251.15
2219.31
2182.27
2137.75
2088.58
2020.74
459.682
2.08394
1.89577
1.63309
1.56772
10.3776
25.3818
15.7081
2342.63
2337.71
2334.38
2327.98
2319.56
2308.82
2295.68
2279.98
2261.57
2240.37
2215.89
2188.36
2145.93
2075.62
1865.63
428.927
6.30957
2.74868
2.41561
2.19616
3.59191
3.69162
2.32122
2282.4
2265.93
2260.65
2244.46
2220.23
2184.52
2134.16
2066.73
1976.79
1861.48
1714.61
1530.39
1230.73
943.941
512.252
323.776
47.3863
3.32671
2.72989
2.38973
2.69271
2.85826
1.83081
1126.3
1052.48
1029.11
966.319
882.131
784.054
675.447
558.414
441.131
327.206
219.12
124.854
21.593
-1.1998
-1.08898
32.0548
77.8999
6.91589
2.21092
1.93736
2.02995
2.11483
1.52893
-0.0207387
-0.0485087
-0.0822424
-0.143451
-0.201071
-0.24751
-0.30353
-0.380846
-0.481943
-0.61447
-0.781783
-0.983153
-1.16021
-1.25743
-1.30603
-1.33773
47.5359
24.1183
1.07198
0.932287
1.15554
1.34254
1.11695
-0.0932066
-0.103041
-0.130543
-0.162585
-0.204479
-0.251044
-0.308261
-0.381095
-0.474888
-0.593892
-0.742666
-0.929232
-1.14474
-1.37051
-1.58245
-1.69256
-1.00954
26.7617
6.09924
-0.269975
0.371999
0.743876
0.775226
-0.110655
-0.119427
-0.139127
-0.165001
-0.199651
-0.241779
-0.29425
-0.36023
-0.444769
-0.553478
-0.695588
-0.891492
-1.17112
-1.54425
-1.93171
-2.20553
-2.17279
25.5696
7.08901
-1.12928
-0.135306
0.358999
0.53389
-0.11416
-0.12074
-0.136073
-0.157629
-0.186026
-0.22164
-0.26615
-0.322385
-0.394829
-0.49102
-0.624115
-0.822398
-1.14608
-1.64228
-2.09062
-1.4619
-1.94585
10.0088
3.0794
-1.39251
-0.36802
0.15133
0.387562
-0.106197
-0.111532
-0.123176
-0.140292
-0.162804
-0.191346
-0.226968
-0.271758
-0.329445
-0.407035
-0.516676
-0.688574
-0.999748
-1.5212
-1.92818
1.34348
6.75768
6.81766
-2.43722
-1.1695
-0.354087
0.0979995
0.321924
-0.0913714
-0.0960612
-0.104494
-0.117197
-0.134126
-0.155522
-0.181976
-0.214702
-0.256192
-0.310708
-0.385158
-0.501898
-0.723569
-1.10714
-0.846639
-0.0714015
-1.418
-2.00447
-1.57431
-0.721004
-0.173704
0.141091
0.302599
-0.0733677
-0.0767122
-0.0825774
-0.0914358
-0.10328
-0.118047
-0.135881
-0.157256
-0.183531
-0.216577
-0.258666
-0.320792
-0.435563
-0.631079
-0.875549
-1.09516
-1.19991
-1.08003
-0.694835
-0.255314
0.0291215
0.208084
0.30477
-0.0526926
-0.0545308
-0.0583608
-0.0640787
-0.0716037
-0.0807324
-0.0912485
-0.103155
-0.117138
-0.134003
-0.15424
-0.181585
-0.228152
-0.306487
-0.406817
-0.481532
-0.472265
-0.366969
-0.168241
0.0257402
0.159845
0.253983
0.306609
-0.030119
-0.0310679
-0.0333053
-0.036512
-0.0405471
-0.0451764
-0.0499943
-0.054754
-0.0597323
-0.0653263
-0.0715862
-0.0796203
-0.0932222
-0.115852
-0.143305
-0.156975
-0.131946
-0.0571748
0.0467313
0.14431
0.217786
0.270597
0.298897
-0.00785958
-0.00839096
-0.00937638
-0.0106077
-0.0119129
-0.0130856
-0.0137235
-0.0134866
-0.0124156
-0.0107322
-0.00846798
-0.00609161
-0.00519499
-0.00653936
-0.00688806
0.0010294
0.025331
0.0731403
0.134001
0.192021
0.237738
0.269022
0.283738
0.0124927
0.0122857
0.0122543
0.0125057
0.0132196
0.0145789
0.0168582
0.0203624
0.025171
0.0311833
0.0383579
0.0464584
0.0547682
0.0631454
0.0733516
0.0883744
0.110911
0.142485
0.179257
0.214261
0.241942
0.259524
0.265588
0.0304468
0.0305798
0.0312207
0.0324941
0.0345824
0.0376284
0.0417786
0.0472382
0.0541019
0.0623171
0.0718009
0.0823694
0.0936308
0.105514
0.118846
0.134858
0.154336
0.177159
0.200779
0.221966
0.237774
0.246365
0.246719
0.0460732
0.0464972
0.0475961
0.0495136
0.0524388
0.056468
0.0616584
0.0681086
0.07588
0.0849372
0.0951721
0.106407
0.118391
0.130994
0.144395
0.158947
0.174676
0.191022
0.206552
0.219528
0.228092
0.231101
0.22791
0.0592581
0.0598728
0.0612751
0.0635897
0.0669594
0.0714486
0.0770622
0.083817
0.0917288
0.100753
0.110771
0.121597
0.133007
0.144834
0.156994
0.169394
0.181722
0.193331
0.203544
0.211197
0.215203
0.214803
0.209563
0.0697101
0.0704293
0.0720183
0.0745621
0.0781137
0.082714
0.0883382
0.0949579
0.102551
0.111051
0.120334
0.130219
0.140491
0.150932
0.161332
0.171452
0.180936
0.18925
0.195803
0.199892
0.200929
0.198409
0.19204
0.0773065
0.0780697
0.0797481
0.0823772
0.0859345
0.0904286
0.0958178
0.102053
0.109084
0.116826
0.125147
0.133876
0.142805
0.151706
0.160325
0.168379
0.175535
0.181373
0.185397
0.18716
0.186299
0.182499
0.175576
0.0822131
0.0829841
0.0846627
0.0872492
0.0906815
0.0949306
0.0999484
0.105675
0.11204
0.118944
0.126257
0.133814
0.14142
0.14885
0.155854
0.162156
0.167456
0.17142
0.173671
0.173904
0.171851
0.167332
0.160238
0.0848073
0.0855619
0.0871641
0.0896065
0.0928116
0.0967259
0.1013
0.106467
0.112139
0.118215
0.124564
0.131031
0.13743
0.143553
0.14917
0.154033
0.157881
0.160448
0.161461
0.160675
0.157885
0.153016
0.145995
0.0855016
0.0862161
0.0876908
0.0899208
0.09283
0.0963603
0.100461
0.105055
0.110052
0.115347
0.120815
0.126304
0.131645
0.136648
0.141108
0.144809
0.147533
0.149061
0.149185
0.147707
0.144536
0.139567
0.132774
0.0846157
0.0852731
0.0865982
0.0885839
0.0911695
0.0943034
0.0979286
0.101966
0.106326
0.110905
0.11558
0.12021
0.12464
0.128699
0.13221
0.134987
0.136847
0.137613
0.137122
0.135236
0.131863
0.126947
0.120479
0.0823576
0.0829541
0.0841285
0.0858703
0.0881408
0.0908921
0.0940632
0.0975789
0.101353
0.105285
0.109259
0.113144
0.1168
0.120077
0.122819
0.124868
0.126071
0.126282
0.125377
0.123251
0.119831
0.115083
0.109005
0.0788636
0.0794021
0.0804354
0.0819557
0.0839395
0.0863386
0.0890944
0.0921383
0.0953891
0.098751
0.102116
0.105366
0.108375
0.11101
0.113137
0.11462
0.11533
0.115152
0.113985
0.11175
0.108394
0.103892
0.0982478
0.0742356
0.0747177
0.0756259
0.0769562
0.0786888
0.0807771
0.0831689
0.0858016
0.0885983
0.0914695
0.094317
0.0970352
0.0995121
0.101631
0.103274
0.104327
0.104684
0.104248
0.102942
0.100703
0.0974914
0.093291
0.0881079
0.0685673
0.0689951
0.0697971
0.0709682
0.0724865
0.0743109
0.0763948
0.0786792
0.0810917
0.083551
0.0859696
0.0882535
0.0903032
0.0920166
0.0932922
0.0940334
0.0941514
0.0935688
0.0922214
0.0900607
0.0870561
0.0831977
0.0784942
0.0619606
0.0623396
0.0630537
0.0640913
0.0654312
0.0670376
0.0688666
0.0708615
0.0729565
0.0750793
0.077152
0.0790912
0.0808089
0.0822161
0.0832259
0.0837568
0.0837346
0.0830951
0.0817862
0.0797693
0.0770215
0.0735364
0.0693217
0.0545196
0.0548575
0.0554977
0.0564245
0.057619
0.0590484
0.0606693
0.0624291
0.0642692
0.0661259
0.0679294
0.0696052
0.0710759
0.0722644
0.0730968
0.0735036
0.0734227
0.0728004
0.0715943
0.0697741
0.0673231
0.0642395
0.0605385
0.046351
0.0466535
0.0472302
0.048066
0.0491433
0.0504296
0.0518833
0.0534574
0.0551003
0.0567546
0.0583572
0.0598413
0.0611394
0.0621851
0.062915
0.0632702
0.0631978
0.0626534
0.0616023
0.0600209
0.0578976
0.0552319
0.0520358
0.0376027
0.0378731
0.0383947
0.0391542
0.0401337
0.0413014
0.04262
0.0440484
0.0455401
0.0470425
0.0484983
0.0498485
0.0510343
0.0519987
0.0526871
0.053049
0.0530399
0.0526225
0.0517688
0.0504609
0.0486905
0.0464592
0.0437777
0.0284098
0.0286504
0.0291263
0.029821
0.0307176
0.0317871
0.0329972
0.0343111
0.0356861
0.0370739
0.0384233
0.0396826
0.0408015
0.0417307
0.0424234
0.0428364
0.0429319
0.0426791
0.0420556
0.0410474
0.0396494
0.0378649
0.0357061
0.0187208
0.0189281
0.0193703
0.0200151
0.0208498
0.0218485
0.0229828
0.0242184
0.0255152
0.0268291
0.0281151
0.0293285
0.0304256
0.031364
0.0321033
0.0326067
0.0328426
0.032786
0.0324189
0.0317311
0.0307196
0.0293887
0.0277498
0.00851313
0.00867991
0.00909368
0.00969872
0.0104897
0.0114427
0.0125307
0.0137208
0.0149757
0.0162559
0.0175217
0.0187339
0.0198544
0.020846
0.0216739
0.0223068
0.0227184
0.0228885
0.022803
0.0224545
0.021842
0.0209707
0.0198517
-0.00194052
-0.00182498
-0.0014488
-0.000885093
-0.000132774
0.000782729
0.00183411
0.00299012
0.00421704
0.00548017
0.00674479
0.00797659
0.00914197
0.0102087
0.0111471
0.0119307
0.0125381
0.0129529
0.0131642
0.0131668
0.0129608
0.0125521
0.0119519
-0.0129539
-0.0130075
-0.0126684
-0.0121276
-0.0113947
-0.010498
-0.00946395
-0.00832057
-0.00709698
-0.00582309
-0.00452906
-0.00324486
-0.00199965
-0.000821006
0.000265986
0.00123959
0.00208205
0.00278004
0.00332483
0.00371233
0.00394298
0.00402172
0.00395791
-4.84771
-3.95487
-3.76025
-3.24525
-1.97279
-4.04916
-4.31313
-3.50292
-5.35761
-5.98466
-5.52425
-4.13614
-7.90068
-7.52853
-6.01852
-4.41071
-6.25376
-5.62239
-5.50876
-4.27384
-0.065251
-3.33054
-4.67841
-3.48057
1.56608
-2.01441
-3.11931
-2.42841
0.0527791
-1.25179
-1.58463
-1.45162
0.512452
-0.265299
-0.640715
-0.765701
0.655757
0.195428
-0.127595
-0.332143
0.621817
0.372733
0.126659
-0.0759173
0.540486
0.41555
0.240596
0.0691792
0.462324
0.404748
0.284233
0.147125
0.402672
0.378388
0.294338
0.18565
0.366027
0.351603
0.288956
0.20151
0.342861
0.32809
0.276692
0.204605
0.324352
0.305954
0.261411
0.2021
0.304085
0.283544
0.243695
0.191427
0.281816
0.260833
0.225268
0.17965
0.259378
0.238722
0.206909
0.167061
0.237841
0.217854
0.189269
0.154262
0.21754
0.198467
0.172697
0.141766
0.198564
0.180587
0.157314
0.129852
0.180956
0.164174
0.143134
0.118653
0.16473
0.149159
0.13012
0.108223
0.149827
0.135444
0.1182
0.0985616
0.136136
0.122899
0.107276
0.0896302
0.123531
0.111391
0.097241
0.0813721
0.111886
0.10079
0.0879899
0.0737214
0.101076
0.0909755
0.0794225
0.0666101
0.0909865
0.0818382
0.0714459
0.0599713
0.0815139
0.0732784
0.0639755
0.0537414
0.0725645
0.0652073
0.0569342
0.0478606
0.0640528
0.0575452
0.050253
0.0422743
0.0559077
0.0502229
0.0438701
0.036932
0.0480531
0.0431744
0.0377282
0.0317864
0.0404307
0.0363428
0.0317747
0.0267926
0.0330075
0.0296753
0.0259583
0.0219066
0.0256774
0.0231047
0.0202254
0.0170836
0.0184013
0.0165766
0.0145229
0.0122781
0.0111198
0.0100329
0.00879689
0.00744425
0.00375136
0.00339878
0.00297846
0.00252364
-2.2478
-1.8277
-1.60187
-1.44378
-1.31386
-1.21152
-1.13132
-1.0676
-1.01625
-0.974393
-0.940232
-0.912166
-0.889151
-0.870441
-0.855499
-0.84394
-0.835487
-0.829948
-0.827205
-2.47957
-1.92546
-1.62318
-1.44514
-1.29514
-1.18613
-1.10406
-1.0405
-0.990062
-0.949419
-0.916502
-0.889638
-0.86771
-0.849943
-0.83579
-0.824861
-0.816878
-0.811652
-0.809064
-2.73187
-1.97766
-1.63898
-1.41523
-1.26027
-1.15057
-1.06986
-1.00846
-0.960029
-0.921558
-0.890508
-0.865261
-0.844711
-0.828093
-0.814875
-0.804678
-0.797236
-0.792364
-0.789951
-2.78237
-1.97639
-1.59001
-1.35883
-1.20844
-1.10431
-1.02855
-0.971593
-0.92647
-0.890948
-0.862356
-0.839134
-0.820244
-0.804975
-0.792832
-0.783465
-0.776628
-0.772152
-0.769934
-2.64043
-1.83591
-1.48356
-1.27546
-1.14061
-1.0479
-0.980415
-0.928822
-0.889415
-0.85779
-0.832219
-0.8114
-0.794433
-0.780696
-0.769757
-0.76131
-0.755139
-0.751094
-0.749089
-2.25341
-1.60896
-1.33238
-1.16867
-1.05931
-0.982941
-0.926562
-0.883293
-0.849564
-0.822432
-0.800343
-0.78225
-0.767431
-0.755384
-0.745761
-0.738311
-0.732856
-0.729276
-0.727498
-1.73206
-1.3346
-1.15613
-1.0462
-0.968382
-0.911553
-0.868371
-0.834488
-0.807392
-0.785273
-0.767025
-0.751909
-0.739416
-0.729186
-0.720967
-0.714575
-0.709878
-0.706787
-0.70525
-1.21935
-1.05613
-0.97396
-0.917266
-0.872198
-0.836416
-0.807412
-0.783474
-0.76354
-0.746772
-0.7326
-0.720632
-0.710586
-0.70226
-0.695508
-0.690217
-0.686309
-0.683726
-0.682437
-0.802781
-0.803395
-0.79982
-0.790027
-0.775653
-0.760223
-0.745256
-0.731336
-0.718715
-0.707423
-0.697429
-0.688687
-0.681151
-0.674776
-0.669523
-0.665359
-0.662255
-0.660189
-0.659155
-0.489796
-0.588444
-0.642528
-0.670443
-0.682327
-0.685284
-0.683447
-0.679117
-0.673624
-0.667728
-0.661879
-0.656353
-0.651326
-0.646905
-0.643157
-0.640122
-0.637825
-0.636279
-0.635499
-0.268467
-0.415769
-0.506835
-0.562302
-0.59502
-0.613539
-0.623325
-0.627756
-0.62893
-0.628165
-0.626304
-0.623901
-0.621324
-0.618819
-0.616551
-0.61463
-0.613128
-0.612096
-0.611567
-0.118407
-0.282735
-0.393833
-0.467442
-0.515494
-0.546391
-0.565948
-0.578037
-0.585213
-0.589168
-0.591036
-0.591587
-0.591349
-0.590685
-0.589844
-0.589
-0.588271
-0.587738
-0.587453
-0.0203653
-0.183467
-0.30226
-0.386195
-0.444586
-0.484711
-0.512063
-0.530564
-0.542947
-0.551108
-0.556367
-0.559645
-0.561589
-0.562657
-0.563168
-0.563349
-0.563357
-0.563301
-0.563251
0.0413914
-0.111217
-0.22959
-0.317891
-0.382417
-0.428901
-0.462128
-0.485762
-0.502498
-0.51429
-0.522546
-0.528278
-0.532214
-0.534878
-0.536645
-0.537784
-0.538484
-0.538877
-0.539048
0.0785834
-0.0597154
-0.172838
-0.261278
-0.32861
-0.378998
-0.416352
-0.443889
-0.46412
-0.478942
-0.489773
-0.497659
-0.503371
-0.507477
-0.510388
-0.512405
-0.513743
-0.514551
-0.514928
0.099193
-0.0237706
-0.129068
-0.214839
-0.282486
-0.334782
-0.374743
-0.405062
-0.427969
-0.445227
-0.4582
-0.467925
-0.475184
-0.480561
-0.484493
-0.487301
-0.489217
-0.490403
-0.490967
0.108266
0.000604698
-0.0956686
-0.177015
-0.243208
-0.295863
-0.337167
-0.369282
-0.394114
-0.413244
-0.427936
-0.439183
-0.447751
-0.454224
-0.459047
-0.462551
-0.46498
-0.466504
-0.467235
0.113795
0.016693
-0.0703965
-0.14635
-0.209902
-0.26176
-0.303393
-0.336466
-0.362557
-0.383037
-0.399047
-0.411508
-0.421149
-0.42854
-0.434121
-0.438224
-0.441098
-0.442916
-0.443793
0.112971
0.0279367
-0.0513083
-0.121554
-0.181733
-0.231959
-0.273129
-0.306472
-0.333246
-0.354609
-0.371564
-0.384946
-0.395432
-0.403566
-0.409771
-0.414376
-0.417625
-0.419693
-0.420695
0.109254
0.0345422
-0.0367914
-0.10152
-0.157919
-0.205948
-0.246061
-0.279117
-0.306087
-0.327924
-0.345487
-0.359518
-0.370635
-0.379341
-0.386041
-0.391051
-0.394607
-0.396881
-0.397986
0.103839
0.0380212
-0.0259766
-0.0852055
-0.137765
-0.183237
-0.221867
-0.254199
-0.280962
-0.302921
-0.320795
-0.335228
-0.346773
-0.355893
-0.362964
-0.368284
-0.37208
-0.374517
-0.375705
0.0975072
0.0393768
-0.0179947
-0.071906
-0.120609
-0.163378
-0.200227
-0.231507
-0.257738
-0.279521
-0.297444
-0.312058
-0.323849
-0.333234
-0.340559
-0.3461
-0.350072
-0.35263
-0.353879
0.0907956
0.0393043
-0.0121167
-0.0610774
-0.105933
-0.145945
-0.180833
-0.210822
-0.23627
-0.257631
-0.27538
-0.289979
-0.301851
-0.311366
-0.318836
-0.324515
-0.328601
-0.331241
-0.332533
0.0840328
0.0382972
-0.00780752
-0.0521981
-0.0933742
-0.130547
-0.163407
-0.191933
-0.216405
-0.237152
-0.254539
-0.268953
-0.280759
-0.29028
-0.297796
-0.303535
-0.30768
-0.310364
-0.311679
0.0774192
0.0366954
-0.0046641
-0.0448617
-0.0825483
-0.116942
-0.147654
-0.174652
-0.197997
-0.217976
-0.234846
-0.248931
-0.260542
-0.269961
-0.277432
-0.283161
-0.287311
-0.290005
-0.291328
0.0710697
0.0347338
-0.00238592
-0.0387467
-0.073151
-0.104848
-0.133427
-0.158745
-0.180902
-0.200003
-0.216225
-0.229858
-0.241165
-0.250385
-0.257732
-0.263386
-0.267494
-0.270167
-0.271481
0.0650411
0.0325718
-0.000748758
-0.0336009
-0.0649309
-0.0940371
-0.120502
-0.14414
-0.16492
-0.183138
-0.198597
-0.211675
-0.222583
-0.231522
-0.238674
-0.244196
-0.24822
-0.250843
-0.252134
0.0593523
0.0303156
0.000413748
-0.029226
-0.0576825
-0.0843116
-0.108705
-0.130655
-0.150105
-0.167149
-0.181878
-0.194318
-0.204751
-0.213339
-0.220234
-0.225575
-0.229475
-0.232023
-0.233279
0.0539987
0.0280334
0.00122449
-0.0254663
-0.0512374
-0.0755053
-0.0978818
-0.118149
-0.136224
-0.152134
-0.16594
-0.177722
-0.18762
-0.195796
-0.202383
-0.207499
-0.211243
-0.213693
-0.214901
0.0489615
0.0257677
0.00177385
-0.0221996
-0.0454579
-0.0674779
-0.0878976
-0.106499
-0.12318
-0.137931
-0.150786
-0.161821
-0.171139
-0.178854
-0.185088
-0.189941
-0.1935
-0.195833
-0.196984
0.0442139
0.0235424
0.00212785
-0.0193302
-0.0402314
-0.0601111
-0.078637
-0.0955972
-0.11088
-0.124453
-0.136332
-0.146569
-0.155255
-0.162472
-0.168315
-0.172873
-0.176221
-0.178419
-0.179506
0.039725
0.0213688
0.00233426
-0.016783
-0.0354659
-0.0533052
-0.0699999
-0.0853496
-0.0992398
-0.111624
-0.122503
-0.131914
-0.139919
-0.146603
-0.152026
-0.156262
-0.159378
-0.161426
-0.16244
0.0354619
0.0192498
0.00242725
-0.0144991
-0.0310859
-0.0469755
-0.061899
-0.0756708
-0.0881786
-0.0993689
-0.109232
-0.117792
-0.125095
-0.131199
-0.136182
-0.140074
-0.142939
-0.144824
-0.145759
0.0313919
0.0171819
0.0024308
-0.0124322
-0.027029
-0.04105
-0.0542579
-0.0664847
-0.0776238
-0.0876197
-0.0964561
-0.104146
-0.110724
-0.116235
-0.120733
-0.124272
-0.126871
-0.128582
-0.129433
0.0274825
0.015158
0.0023613
-0.0105458
-0.0232435
-0.0354668
-0.0470095
-0.0577225
-0.0675083
-0.0763123
-0.0841147
-0.0909214
-0.0967567
-0.101656
-0.10566
-0.108809
-0.111137
-0.112665
-0.113431
0.0237017
0.0131676
0.00222941
-0.00881096
-0.019686
-0.0301723
-0.0400941
-0.0493223
-0.0577699
-0.0653867
-0.0721512
-0.0780646
-0.0831438
-0.0874156
-0.0909116
-0.0936633
-0.0956985
-0.0970341
-0.0977178
0.020018
0.0111982
0.00204142
-0.00720438
-0.0163195
-0.0251197
-0.0334586
-0.0412273
-0.0483514
-0.0547861
-0.0605109
-0.0655239
-0.0698365
-0.0734688
-0.0764448
-0.0787892
-0.0805245
-0.0816662
-0.0822476
0.0163994
0.00923537
0.00180027
-0.00570749
-0.0131126
-0.0202676
-0.0270546
-0.0333854
-0.0391987
-0.0444567
-0.0491412
-0.0532488
-0.056787
-0.0597703
-0.0622168
-0.0641455
-0.0655742
-0.0665152
-0.0669939
0.0128133
0.00726309
0.00150631
-0.00430512
-0.0100376
-0.0155786
-0.0208381
-0.0257481
-0.030261
-0.034347
-0.0379911
-0.0411897
-0.0439475
-0.0462748
-0.0481847
-0.0496913
-0.0508079
-0.0515435
-0.0519186
0.00922632
0.00526397
0.00115775
-0.00298493
-0.00707017
-0.011019
-0.0147682
-0.0182697
-0.0214898
-0.0244073
-0.027011
-0.0292981
-0.0312712
-0.0329373
-0.0343053
-0.0353848
-0.0361854
-0.0367124
-0.0369827
0.0056052
0.00322102
0.00075302
-0.00173468
-0.00418641
-0.00655547
-0.00880445
-0.010905
-0.0128372
-0.0145883
-0.0161517
-0.0175254
-0.018711
-0.0197124
-0.0205349
-0.0211841
-0.0216658
-0.0219824
-0.0221463
0.00190603
0.00110627
0.000279177
-0.000553682
-0.00137374
-0.00216552
-0.00291673
-0.00361807
-0.00426301
-0.00484742
-0.00536912
-0.00582751
-0.00622312
-0.00655728
-0.00683174
-0.00704843
-0.00720934
-0.00731482
-0.00737027
)
;

boundaryField
{
    leftWall
    {
        type            fixedFluxPressure;
        gradient        uniform 0;
        value           nonuniform List<scalar> 
50
(
3072.58
3050.57
3007.92
2947.6
2873.78
2791.52
2706.38
2623.25
2561.71
2519.07
2478.95
2441.41
2406.85
2374.81
2342.63
2282.4
1126.3
-0.0207387
-0.0932066
-0.110655
-0.11416
-0.106197
-0.0913714
-0.0733677
-0.0526926
-0.030119
-0.00785958
0.0124927
0.0304468
0.0460732
0.0592581
0.0697101
0.0773065
0.0822131
0.0848073
0.0855016
0.0846157
0.0823576
0.0788636
0.0742356
0.0685673
0.0619606
0.0545196
0.046351
0.0376027
0.0284098
0.0187208
0.00851313
-0.00194052
-0.0129539
)
;
    }
    rightWall
    {
        type            fixedFluxPressure;
        gradient        uniform 0;
        value           nonuniform List<scalar> 
50
(
-0.958235
-0.954354
-0.946613
-0.935004
-0.919545
-0.900281
-0.877296
-0.850731
-0.827205
-0.809064
-0.789951
-0.769934
-0.749089
-0.727498
-0.70525
-0.682437
-0.659155
-0.635499
-0.611567
-0.587453
-0.563251
-0.539048
-0.514928
-0.490967
-0.467235
-0.443793
-0.420695
-0.397986
-0.375705
-0.353879
-0.332533
-0.311679
-0.291328
-0.271481
-0.252134
-0.233279
-0.214901
-0.196984
-0.179506
-0.16244
-0.145759
-0.129433
-0.113431
-0.0977178
-0.0822476
-0.0669939
-0.0519186
-0.0369827
-0.0221463
-0.00737027
)
;
    }
    lowerWall
    {
        type            fixedFluxPressure;
        gradient        uniform 0;
        value           nonuniform List<scalar> 
62
(
3072.58
3077.56
3082.6
3089.07
3098.33
3110.93
3127.29
3148.15
3174.48
3207.53
3248.83
3300.26
3364.08
3442.91
3539.58
3656.94
3796.38
3956.65
4133.83
4320
4498.76
4652.12
4760.23
4760.23
5060.53
5097.43
4045.73
2073.41
1024.53
726.189
373.607
-4.84771
-3.95487
-3.76025
-3.24525
-1.3405
-1.34927
-1.3693
-1.40279
-1.45548
-1.53011
-1.67812
-1.80398
-1.3405
-1.32971
-1.31322
-1.29032
-1.26273
-1.23202
-1.19968
-1.167
-1.13504
-1.10461
-1.07631
-1.05061
-1.02778
-1.00803
-0.991482
-0.978199
-0.968222
-0.961565
-0.958235
)
;
    }
    atmosphere
    {
        type            totalPressure;
        rho             rho;
        psi             none;
        gamma           1;
        p0              uniform 0;
        value           nonuniform List<scalar> 
46
(
-0.01871
-0.0190607
-0.0187029
-0.0181477
-0.0174109
-0.0165141
-0.0154803
-0.014334
-0.0131015
-0.0118101
-0.0104879
-0.00916251
-0.00786098
-0.00660843
-0.00542757
-0.00433806
-0.00335599
-0.00249353
-0.00175878
-0.00115577
-0.00068461
-0.000341915
-0.00012127
-1.02588e-05
0
0
0
0
0
0
0
0
0
0
0
0
0
0
0
0
0
0
0
0
0
0
)
;
    }
    defaultFaces
    {
        type            empty;
    }
}


// ************************************************************************* //
