/*--------------------------------*- C++ -*----------------------------------*\
| =========                 |                                                 |
| \\      /  F ield         | OpenFOAM: The Open Source CFD Toolbox           |
|  \\    /   O peration     | Version:  2206                                  |
|   \\  /    A nd           | Website:  www.openfoam.com                      |
|    \\/     M anipulation  |                                                 |
\*---------------------------------------------------------------------------*/
FoamFile
{
    version     2.0;
    format      ascii;
    arch        "LSB;label=32;scalar=64";
    class       surfaceScalarField;
    location    "0.25";
    object      phi;
}
// * * * * * * * * * * * * * * * * * * * * * * * * * * * * * * * * * * * * * //

dimensions      [0 3 -1 0 0 0 0];

oriented        oriented;

internalField   nonuniform List<scalar> 
4432
(
7.69841e-07
-7.69841e-07
2.32395e-06
-1.55411e-06
3.93749e-06
-1.61353e-06
5.39817e-06
-1.46069e-06
6.71754e-06
-1.31937e-06
7.94167e-06
-1.22413e-06
9.09297e-06
-1.15129e-06
1.017e-05
-1.07699e-06
1.11579e-05
-9.87952e-07
1.20356e-05
-8.77632e-07
1.27767e-05
-7.41165e-07
1.33461e-05
-5.69335e-07
1.36947e-05
-3.48682e-07
1.3758e-05
-6.32436e-08
1.34117e-05
3.46311e-07
1.25557e-05
8.55954e-07
1.11357e-05
1.41998e-06
9.17375e-06
1.96198e-06
6.82608e-06
2.34767e-06
4.40243e-06
2.42365e-06
2.26569e-06
2.13674e-06
7.85955e-07
1.47974e-06
7.85953e-07
7.68826e-07
-1.53866e-06
2.33724e-06
-3.12252e-06
3.9778e-06
-3.25409e-06
5.46713e-06
-2.95002e-06
6.81068e-06
-2.66293e-06
8.05583e-06
-2.46928e-06
9.22834e-06
-2.3238e-06
1.0329e-05
-2.17762e-06
1.13443e-05
-2.00324e-06
1.22543e-05
-1.7877e-06
1.3036e-05
-1.52281e-06
1.36672e-05
-1.20053e-06
1.41315e-05
-8.13045e-07
1.44173e-05
-3.49039e-07
1.45365e-05
2.27118e-07
1.44838e-05
9.08662e-07
1.41484e-05
1.75535e-06
1.33588e-05
2.75158e-06
1.19107e-05
3.79584e-06
9.66875e-06
4.66557e-06
6.71621e-06
5.08927e-06
3.35095e-06
4.845e-06
4.1369e-06
7.54135e-07
-2.2928e-06
2.33445e-06
-4.70283e-06
4.00681e-06
-4.92645e-06
5.52979e-06
-4.473e-06
6.90026e-06
-4.03339e-06
8.16747e-06
-3.73648e-06
9.3624e-06
-3.51873e-06
1.04898e-05
-3.30506e-06
1.15387e-05
-3.05206e-06
1.24906e-05
-2.73962e-06
1.33241e-05
-2.35632e-06
1.40147e-05
-1.89114e-06
1.45316e-05
-1.32996e-06
1.48379e-05
-6.5532e-07
1.49205e-05
1.4452e-07
1.47505e-05
1.07865e-06
1.43391e-05
2.16681e-06
1.36606e-05
3.43009e-06
1.25941e-05
4.86225e-06
1.08771e-05
6.38258e-06
8.20999e-06
7.75641e-06
4.47386e-06
8.58112e-06
8.61076e-06
7.33039e-07
-3.02583e-06
2.33302e-06
-6.3028e-06
4.05261e-06
-6.64603e-06
5.62473e-06
-6.04513e-06
7.03492e-06
-5.44359e-06
8.33508e-06
-5.03664e-06
9.56336e-06
-4.74699e-06
1.07302e-05
-4.47191e-06
1.18277e-05
-4.14955e-06
1.28393e-05
-3.7512e-06
1.37444e-05
-3.26145e-06
1.45193e-05
-2.66606e-06
1.51368e-05
-1.94743e-06
1.55662e-05
-1.0848e-06
1.57597e-05
-4.89464e-08
1.56708e-05
1.16752e-06
1.52417e-05
2.59591e-06
1.44312e-05
4.24063e-06
1.31884e-05
6.10501e-06
1.13829e-05
8.18813e-06
8.72552e-06
1.04138e-05
4.87433e-06
1.24323e-05
1.34851e-05
7.08755e-07
-3.73458e-06
2.33419e-06
-7.92824e-06
4.11241e-06
-8.42425e-06
5.74604e-06
-7.67876e-06
7.20715e-06
-6.90469e-06
8.55053e-06
-6.38002e-06
9.82268e-06
-6.01914e-06
1.1041e-05
-5.69022e-06
1.22016e-05
-5.31018e-06
1.32903e-05
-4.83983e-06
1.4288e-05
-4.2592e-06
1.51729e-05
-3.55097e-06
1.59191e-05
-2.69364e-06
1.64943e-05
-1.65999e-06
1.68614e-05
-4.16e-07
1.69575e-05
1.07142e-06
1.6707e-05
2.84634e-06
1.60023e-05
4.94533e-06
1.47202e-05
7.3872e-06
1.2732e-05
1.01763e-05
9.84238e-06
1.33034e-05
5.66707e-06
1.66076e-05
1.91522e-05
6.83219e-07
-4.4178e-06
2.33935e-06
-9.58437e-06
4.1841e-06
-1.0269e-05
5.88716e-06
-9.38183e-06
7.40729e-06
-8.42482e-06
8.80264e-06
-7.77537e-06
1.01285e-05
-7.34497e-06
1.14097e-05
-6.97146e-06
1.26473e-05
-6.54776e-06
1.38299e-05
-6.02241e-06
1.4941e-05
-5.3703e-06
1.59612e-05
-4.5712e-06
1.68675e-05
-3.59996e-06
1.7631e-05
-2.42345e-06
1.82138e-05
-9.98826e-07
1.85602e-05
7.25056e-07
1.85958e-05
2.81065e-06
1.81905e-05
5.35065e-06
1.71451e-05
8.43261e-06
1.51893e-05
1.21321e-05
1.1971e-05
1.65217e-05
6.99543e-06
2.15832e-05
2.61476e-05
6.55164e-07
-5.07296e-06
2.3484e-06
-1.12776e-05
4.26513e-06
-1.21857e-05
6.04063e-06
-1.11573e-05
7.62349e-06
-1.00077e-05
9.07657e-06
-9.22845e-06
1.04638e-05
-8.73219e-06
1.18174e-05
-8.32502e-06
1.31432e-05
-7.87361e-06
1.44338e-05
-7.31296e-06
1.56762e-05
-6.61272e-06
1.68555e-05
-5.75046e-06
1.7954e-05
-4.69846e-06
1.89497e-05
-3.41919e-06
1.98128e-05
-1.86191e-06
2.04848e-05
5.30778e-08
2.0917e-05
2.37839e-06
2.09829e-05
5.28478e-06
2.04745e-05
8.94104e-06
1.9094e-05
1.35126e-05
1.62289e-05
1.93868e-05
1.13521e-05
2.646e-05
3.74997e-05
6.33054e-07
-5.70602e-06
2.36861e-06
-1.30132e-05
4.35621e-06
-1.41733e-05
6.20032e-06
-1.30014e-05
7.84501e-06
-1.16524e-05
9.35927e-06
-1.07427e-05
1.08142e-05
-1.01872e-05
1.22478e-05
-9.75861e-06
1.36704e-05
-9.29618e-06
1.50784e-05
-8.721e-06
1.64639e-05
-7.99821e-06
1.78181e-05
-7.10464e-06
1.91317e-05
-6.01211e-06
2.03929e-05
-4.68032e-06
2.15828e-05
-3.0518e-06
2.26849e-05
-1.04909e-06
2.36355e-05
1.42783e-06
2.43542e-05
4.56608e-06
2.46116e-05
8.6836e-06
2.40066e-05
1.41176e-05
2.1374e-05
2.20193e-05
1.51757e-05
3.26583e-05
5.26754e-05
2.5795e-05
-2.5795e-05
3.04929e-05
-4.69778e-06
-2.4958e-05
5.5451e-05
-0.000126028
0.00010107
-0.000195871
6.98429e-05
-0.000153077
-4.27937e-05
-7.58375e-05
-7.72394e-05
1.93919e-05
-9.52294e-05
9.69274e-05
-7.75355e-05
0.000145981
-4.90533e-05
0.000176913
-3.09322e-05
0.000198047
-2.11343e-05
0.000212879
-1.48318e-05
0.000215601
-2.72232e-06
0.000183928
3.16729e-05
0.000104356
7.95723e-05
1.0509e-05
9.38471e-05
-8.96972e-05
0.000100206
-8.96971e-05
-7.914e-06
-1.78811e-05
-3.62899e-05
2.36781e-05
-8.83183e-05
0.000107479
-0.00013775
0.000150502
-6.56524e-05
-2.25487e-06
-1.08901e-05
-9.7556e-05
3.60249e-05
-0.000124154
0.000113748
-0.000172952
0.000157946
-0.000121734
0.000182771
-7.3878e-05
0.000197549
-4.57102e-05
0.000206676
-3.02612e-05
0.000210265
-1.84209e-05
0.000212691
-5.14786e-06
0.000218657
2.57066e-05
0.000211969
8.62598e-05
0.000163779
0.000142038
7.53701e-05
0.000188615
-1.43271e-05
-4.12108e-05
2.33297e-05
-7.58427e-05
5.831e-05
-7.91193e-05
0.000110756
4.52092e-06
6.68613e-05
7.63524e-05
-7.40864e-05
9.99559e-05
-0.00012116
0.000141001
-0.000165199
0.000153323
-0.000185274
0.000172912
-0.000141323
0.000190025
-9.09911e-05
0.000201495
-5.71809e-05
0.000208412
-3.71774e-05
0.000212012
-2.20214e-05
0.000212616
-5.75166e-06
0.00021393
2.43929e-05
0.000219525
8.0664e-05
0.000211024
0.000150539
0.000161477
0.000238162
0.00014715
-4.61673e-05
6.9497e-05
-6.23059e-05
7.44487e-05
4.32836e-07
4.80171e-05
9.50271e-05
-2.77331e-05
0.000123018
-0.000102077
0.000148077
-0.000146218
0.000162164
-0.000179286
0.000166784
-0.000189895
0.000180163
-0.000154702
0.000193783
-0.00010461
0.000202245
-6.5643e-05
0.000207032
-4.19643e-05
0.000209672
-2.46619e-05
0.000211408
-7.48703e-06
0.000212102
2.36987e-05
0.000213748
7.90181e-05
0.000214474
0.000149813
0.000180283
0.000272353
0.000327432
-3.35189e-05
0.000103016
-8.4544e-06
4.93843e-05
6.16242e-05
-2.20615e-05
0.000117175
-8.3284e-05
0.000144021
-0.000128923
0.000162421
-0.000164619
0.00017069
-0.000187555
0.000174802
-0.000194007
0.000184478
-0.000164378
0.000193628
-0.00011376
0.000197991
-7.00065e-05
0.0001994
-4.33732e-05
0.000199145
-2.44062e-05
0.000200126
-8.46806e-06
0.000202319
2.15055e-05
0.000199503
8.18344e-05
0.000188919
0.000160397
0.000169097
0.000292175
0.000496529
-6.78505e-06
0.000109801
6.04952e-05
-1.7896e-05
0.000107587
-6.91535e-05
0.000138376
-0.000114073
0.00015879
-0.000149337
0.000169526
-0.000175355
0.000174763
-0.000192791
0.000178278
-0.000197522
0.000183699
-0.000169798
0.000186863
-0.000116925
0.00018456
-6.77027e-05
0.00017945
-3.82634e-05
0.000169446
-1.44028e-05
0.000159827
1.15117e-06
0.000159597
2.17364e-05
0.000161873
7.95584e-05
0.000142044
0.000180226
0.00012965
0.000304569
0.000626179
7.38173e-05
3.59837e-05
0.000104749
-4.8828e-05
0.00013412
-9.85238e-05
0.000154159
-0.000134112
0.000165485
-0.000160663
0.000171735
-0.000181605
0.000175618
-0.000196674
0.000177192
-0.000199096
0.000175937
-0.000168544
0.000170336
-0.000111324
0.000156541
-5.3908e-05
0.000139082
-2.08039e-05
0.000134252
-9.57284e-06
0.000133237
2.16609e-06
0.000136227
1.87468e-05
0.000130258
8.55272e-05
9.82322e-05
0.000212252
8.26118e-05
0.000320189
0.000708791
9.16274e-05
-5.56437e-05
0.000129535
-8.67353e-05
0.00014915
-0.000118139
0.000159897
-0.000144859
0.000166343
-0.000167109
0.000171069
-0.000186331
0.0001733
-0.000198905
0.000169406
-0.000195203
0.00015874
-0.000157878
0.000140109
-9.2693e-05
0.000119141
-3.29405e-05
0.000110027
-1.169e-05
0.000106241
-5.78592e-06
0.000102861
5.54586e-06
0.000108782
1.28252e-05
0.000100529
9.3781e-05
5.60221e-05
0.000256758
4.48272e-05
0.000331384
0.000753618
1.36351e-06
-7.06952e-06
5.23624e-06
-1.68859e-05
9.64831e-06
-1.85854e-05
1.37351e-05
-1.70882e-05
1.74075e-05
-1.53248e-05
2.08337e-05
-1.41689e-05
2.41735e-05
-1.3527e-05
2.75131e-05
-1.30982e-05
3.08821e-05
-1.26651e-05
3.42844e-05
-1.21234e-05
3.772e-05
-1.14338e-05
4.11937e-05
-1.05784e-05
4.47195e-05
-9.53788e-06
4.83222e-05
-8.28309e-06
5.20432e-05
-6.77271e-06
5.59466e-05
-4.95251e-06
6.01361e-05
-2.76173e-06
6.48969e-05
-1.94722e-07
7.0501e-05
3.07953e-06
7.78101e-05
6.80853e-06
8.83846e-05
1.14448e-05
0.000106001
1.50424e-05
2.54205e-05
0.000133255
1.54481e-06
-8.61433e-06
5.64128e-06
-2.09824e-05
1.02177e-05
-2.31618e-05
1.4444e-05
-2.13145e-05
1.83064e-05
-1.91872e-05
2.2005e-05
-1.78675e-05
2.56934e-05
-1.72154e-05
2.94448e-05
-1.68496e-05
3.32859e-05
-1.65062e-05
3.72306e-05
-1.60681e-05
4.12977e-05
-1.55008e-05
4.55182e-05
-1.47989e-05
4.99397e-05
-1.39593e-05
5.46307e-05
-1.29741e-05
5.96892e-05
-1.18312e-05
6.52559e-05
-1.05192e-05
7.15245e-05
-9.03031e-06
7.87031e-05
-7.37326e-06
8.73077e-05
-5.52515e-06
9.77135e-05
-3.59722e-06
0.000110464
-1.30586e-06
0.000125435
7.12957e-08
4.57505e-06
0.000146281
1.90272e-06
-1.0517e-05
6.22658e-06
-2.53062e-05
1.08235e-05
-2.77588e-05
1.50318e-05
-2.55229e-05
1.89806e-05
-2.31359e-05
2.28959e-05
-2.17828e-05
2.6893e-05
-2.12125e-05
3.10038e-05
-2.09604e-05
3.52359e-05
-2.07384e-05
3.9603e-05
-2.04352e-05
4.41328e-05
-2.00306e-05
4.88661e-05
-1.95322e-05
5.3856e-05
-1.89492e-05
5.91684e-05
-1.82865e-05
6.48841e-05
-1.7547e-05
7.11008e-05
-1.67359e-05
7.79344e-05
-1.58639e-05
8.55148e-05
-1.49537e-05
9.40242e-05
-1.40346e-05
0.000103613
-1.31864e-05
0.000114748
-1.244e-05
0.00012704
-1.2221e-05
-1.1905e-05
0.00014352
2.4201e-06
-1.29371e-05
6.93694e-06
-2.98231e-05
1.1411e-05
-3.22328e-05
1.54784e-05
-2.95903e-05
1.94408e-05
-2.70984e-05
2.352e-05
-2.5862e-05
2.77608e-05
-2.54533e-05
3.21406e-05
-2.53401e-05
3.66454e-05
-2.52432e-05
4.12882e-05
-2.5078e-05
4.61015e-05
-2.48439e-05
5.11283e-05
-2.4559e-05
5.64176e-05
-2.42385e-05
6.20239e-05
-2.38927e-05
6.80077e-05
-2.35308e-05
7.44368e-05
-2.3165e-05
8.13853e-05
-2.28124e-05
8.89299e-05
-2.24983e-05
9.71514e-05
-2.22561e-05
0.000106102
-2.2137e-05
0.00011584
-2.2178e-05
0.000126145
-2.2526e-05
-2.29617e-05
0.000137202
3.01857e-06
-1.59557e-05
7.66685e-06
-3.44713e-05
1.19177e-05
-3.64837e-05
1.57858e-05
-3.34584e-05
1.97308e-05
-3.10434e-05
2.39248e-05
-3.00559e-05
2.83238e-05
-2.98523e-05
3.28576e-05
-2.9874e-05
3.75024e-05
-2.98879e-05
4.22751e-05
-2.98507e-05
4.72111e-05
-2.97799e-05
5.23506e-05
-2.96985e-05
5.77335e-05
-2.96215e-05
6.34005e-05
-2.95596e-05
6.93924e-05
-2.95228e-05
7.57507e-05
-2.95233e-05
8.25149e-05
-2.95765e-05
8.972e-05
-2.97034e-05
9.73931e-05
-2.99292e-05
0.000105533
-3.0277e-05
0.000114137
-3.07818e-05
0.000123079
-3.14681e-05
-3.23638e-05
0.000132481
3.61485e-06
-1.95706e-05
8.3194e-06
-3.91759e-05
1.22995e-05
-4.04638e-05
1.59643e-05
-3.71231e-05
1.98902e-05
-3.49693e-05
2.41522e-05
-3.43179e-05
2.86174e-05
-3.43175e-05
3.31904e-05
-3.4447e-05
3.78536e-05
-3.45511e-05
4.26312e-05
-3.46283e-05
4.75571e-05
-3.47059e-05
5.26629e-05
-3.48043e-05
5.79776e-05
-3.49361e-05
6.35277e-05
-3.51098e-05
6.93379e-05
-3.5333e-05
7.54313e-05
-3.56166e-05
8.18321e-05
-3.59774e-05
8.85661e-05
-3.64373e-05
9.56583e-05
-3.70215e-05
0.000103121
-3.77401e-05
0.000110997
-3.8657e-05
0.000119333
-3.98048e-05
-4.13977e-05
0.000128367
4.15317e-06
-2.37237e-05
8.83682e-06
-4.38596e-05
1.25003e-05
-4.41274e-05
1.59798e-05
-4.06025e-05
1.98978e-05
-3.88874e-05
2.41759e-05
-3.8596e-05
2.86102e-05
-3.87517e-05
3.31109e-05
-3.89477e-05
3.76783e-05
-3.91185e-05
4.23412e-05
-3.92913e-05
4.7125e-05
-3.94897e-05
5.20482e-05
-3.97274e-05
5.71289e-05
-4.00169e-05
6.23842e-05
-4.0365e-05
6.78281e-05
-4.07769e-05
7.34828e-05
-4.12714e-05
7.9381e-05
-4.18756e-05
8.55554e-05
-4.26117e-05
9.2052e-05
-4.35181e-05
9.89408e-05
-4.46289e-05
0.000106286
-4.60025e-05
0.000114155
-4.76732e-05
-5.01862e-05
0.000122943
5.02688e-06
-2.87506e-05
9.54164e-06
-4.83743e-05
1.25052e-05
-4.70909e-05
1.57389e-05
-4.38362e-05
1.96287e-05
-4.27772e-05
2.38248e-05
-4.2792e-05
2.80946e-05
-4.30216e-05
3.23865e-05
-4.32395e-05
3.67228e-05
-4.34549e-05
4.11299e-05
-4.36984e-05
4.56207e-05
-4.39805e-05
5.01962e-05
-4.4303e-05
5.4883e-05
-4.47036e-05
5.97309e-05
-4.5213e-05
6.47577e-05
-4.58037e-05
6.99468e-05
-4.64605e-05
7.53621e-05
-4.72909e-05
8.10764e-05
-4.83259e-05
8.72429e-05
-4.96847e-05
9.41226e-05
-5.15086e-05
0.000101014
-5.28942e-05
0.000107059
-5.37181e-05
-5.8914e-05
0.000115787
8.90657e-06
-3.76572e-05
1.15204e-05
-5.09881e-05
1.19052e-05
-4.74758e-05
1.46811e-05
-4.66121e-05
1.84829e-05
-4.6579e-05
2.24156e-05
-4.67247e-05
2.63074e-05
-4.69134e-05
3.01785e-05
-4.71107e-05
3.40747e-05
-4.73511e-05
3.80329e-05
-4.76566e-05
4.20739e-05
-4.80215e-05
4.61818e-05
-4.84109e-05
5.04394e-05
-4.89612e-05
5.50235e-05
-4.97971e-05
5.98259e-05
-5.06061e-05
6.47507e-05
-5.13853e-05
7.01434e-05
-5.26836e-05
7.59765e-05
-5.4159e-05
8.26625e-05
-5.63707e-05
9.13917e-05
-6.02379e-05
9.35496e-05
-5.50521e-05
9.58914e-05
-5.60599e-05
-5.6208e-05
9.31854e-05
1.79316e-05
-5.55888e-05
1.27658e-05
-4.58223e-05
9.15939e-06
-4.38694e-05
1.18823e-05
-4.9335e-05
1.52877e-05
-4.99844e-05
1.85412e-05
-4.99782e-05
2.17009e-05
-5.00731e-05
2.4855e-05
-5.02648e-05
2.80514e-05
-5.05475e-05
3.13914e-05
-5.09965e-05
3.49429e-05
-5.1573e-05
3.87251e-05
-5.21932e-05
4.28617e-05
-5.30978e-05
4.72033e-05
-5.41387e-05
5.07902e-05
-5.4193e-05
5.49393e-05
-5.55344e-05
5.94672e-05
-5.72115e-05
6.40958e-05
-5.87876e-05
6.79634e-05
-6.02381e-05
6.94211e-05
-6.16956e-05
7.73157e-05
-6.29469e-05
8.4549e-05
-6.32935e-05
-6.27694e-05
9.11102e-05
9.93001e-06
-6.55188e-05
9.48293e-06
-4.53753e-05
7.11472e-06
-4.15013e-05
7.72099e-06
-4.99413e-05
9.27339e-06
-5.15368e-05
1.0707e-05
-5.14118e-05
1.26643e-05
-5.20303e-05
1.46864e-05
-5.22869e-05
1.70393e-05
-5.29003e-05
1.98434e-05
-5.38005e-05
2.30932e-05
-5.48229e-05
2.65184e-05
-5.56183e-05
3.00133e-05
-5.65926e-05
3.3864e-05
-5.79894e-05
3.90914e-05
-5.94202e-05
4.45089e-05
-6.09518e-05
4.99904e-05
-6.26929e-05
5.59385e-05
-6.47356e-05
6.26817e-05
-6.69814e-05
7.00837e-05
-6.90975e-05
7.74943e-05
-7.03577e-05
8.39339e-05
-6.97332e-05
-6.87783e-05
8.99427e-05
-9.04134e-06
-5.64774e-05
-7.05995e-06
-4.73565e-05
1.83463e-06
-5.03958e-05
4.85324e-06
-5.29599e-05
6.59326e-06
-5.32769e-05
8.59592e-06
-5.34144e-05
1.03673e-05
-5.38016e-05
1.25941e-05
-5.45137e-05
1.50698e-05
-5.5376e-05
1.76352e-05
-5.63658e-05
2.03423e-05
-5.753e-05
2.35432e-05
-5.88192e-05
2.71331e-05
-6.01824e-05
3.0866e-05
-6.17222e-05
3.49346e-05
-6.34889e-05
3.9544e-05
-6.55613e-05
4.50033e-05
-6.81521e-05
5.1598e-05
-7.13301e-05
5.91058e-05
-7.44894e-05
6.63715e-05
-7.63635e-05
7.16652e-05
-7.56515e-05
7.32155e-05
-7.12836e-05
-6.78731e-05
7.23103e-05
-7.06967e-06
-4.94078e-05
-1.13817e-06
-5.32881e-05
2.88511e-06
-5.44191e-05
4.14951e-06
-5.42242e-05
5.40822e-06
-5.45355e-05
6.84746e-06
-5.48535e-05
8.51726e-06
-5.54714e-05
1.02627e-05
-5.6259e-05
1.20573e-05
-5.71707e-05
1.39754e-05
-5.8284e-05
1.59903e-05
-5.95448e-05
1.81778e-05
-6.10066e-05
2.05588e-05
-6.25634e-05
2.314e-05
-6.43034e-05
2.60946e-05
-6.64435e-05
2.98819e-05
-6.93487e-05
3.49849e-05
-7.32552e-05
4.12531e-05
-7.75984e-05
4.74733e-05
-8.07097e-05
5.15267e-05
-8.04171e-05
5.13451e-05
-7.547e-05
4.62242e-05
-6.61627e-05
-6.46106e-05
4.29618e-05
-1.02593e-06
-4.83819e-05
7.06349e-07
-5.50205e-05
1.31973e-06
-5.50325e-05
1.88967e-06
-5.47942e-05
2.4854e-06
-5.51313e-05
3.23934e-06
-5.56074e-05
3.99211e-06
-5.62239e-05
4.76724e-06
-5.7034e-05
5.5975e-06
-5.80008e-05
6.45059e-06
-5.9137e-05
7.37815e-06
-6.04723e-05
8.34726e-06
-6.19756e-05
9.45441e-06
-6.36704e-05
1.08799e-05
-6.5729e-05
1.30377e-05
-6.86014e-05
1.64531e-05
-7.2764e-05
2.11953e-05
-7.79973e-05
2.63263e-05
-8.27294e-05
3.00009e-05
-8.43844e-05
3.02704e-05
-8.06867e-05
2.62861e-05
-7.14856e-05
2.01524e-05
-6.00288e-05
-6.46806e-05
2.02224e-05
-1.04308e-07
-4.82775e-05
-6.14565e-07
-5.451e-05
-1.07772e-06
-5.45692e-05
-1.18425e-06
-5.46876e-05
-1.30323e-06
-5.50123e-05
-1.4242e-06
-5.54865e-05
-1.54088e-06
-5.61073e-05
-1.67443e-06
-5.69006e-05
-1.79396e-06
-5.78813e-05
-1.87491e-06
-5.90561e-05
-1.92665e-06
-6.04205e-05
-1.90587e-06
-6.19963e-05
-1.72336e-06
-6.38529e-05
-1.14312e-06
-6.63094e-05
2.0303e-07
-6.99477e-05
2.50965e-06
-7.50707e-05
5.35854e-06
-8.08462e-05
7.68273e-06
-8.50536e-05
8.31214e-06
-8.50138e-05
6.8031e-06
-7.91775e-05
4.21303e-06
-6.88954e-05
3.86215e-06
-5.96779e-05
-6.52701e-05
4.45163e-06
-6.27753e-07
-4.76498e-05
-1.69697e-06
-5.34408e-05
-2.69783e-06
-5.35683e-05
-3.56896e-06
-5.38163e-05
-4.42605e-06
-5.4155e-05
-5.28391e-06
-5.46283e-05
-6.15175e-06
-5.52393e-05
-7.04384e-06
-5.60084e-05
-7.97452e-06
-5.69506e-05
-8.94679e-06
-5.80837e-05
-9.96222e-06
-5.94049e-05
-1.10246e-05
-6.09338e-05
-1.20688e-05
-6.28087e-05
-1.2946e-05
-6.54321e-05
-1.35624e-05
-6.93313e-05
-1.40633e-05
-7.45697e-05
-1.48208e-05
-8.00886e-05
-1.61309e-05
-8.37435e-05
-1.77925e-05
-8.33521e-05
-1.88056e-05
-7.81642e-05
-1.79969e-05
-6.97039e-05
-1.53279e-05
-6.23468e-05
-6.20245e-05
-1.85736e-05
-1.05989e-06
-4.65898e-05
-2.48145e-06
-5.20192e-05
-3.89067e-06
-5.21591e-05
-5.30347e-06
-5.24034e-05
-6.72923e-06
-5.27292e-05
-8.19197e-06
-5.31656e-05
-9.71494e-06
-5.37164e-05
-1.13268e-05
-5.43965e-05
-1.30567e-05
-5.52208e-05
-1.49429e-05
-5.61976e-05
-1.70183e-05
-5.73295e-05
-1.93106e-05
-5.86416e-05
-2.18339e-05
-6.02856e-05
-2.46641e-05
-6.2602e-05
-2.80135e-05
-6.59821e-05
-3.21347e-05
-7.04486e-05
-3.70341e-05
-7.51891e-05
-4.22005e-05
-7.85772e-05
-4.66031e-05
-7.89497e-05
-4.91885e-05
-7.55789e-05
-4.96053e-05
-6.92872e-05
-4.93414e-05
-6.26108e-05
-5.66943e-05
-5.46717e-05
-1.37997e-06
-4.52097e-05
-3.1117e-06
-5.02874e-05
-4.88062e-06
-5.039e-05
-6.69996e-06
-5.0584e-05
-8.5775e-06
-5.08515e-05
-1.05441e-05
-5.11991e-05
-1.26241e-05
-5.16363e-05
-1.4854e-05
-5.21666e-05
-1.72785e-05
-5.27962e-05
-1.99494e-05
-5.35263e-05
-2.29243e-05
-5.43544e-05
-2.626e-05
-5.53057e-05
-3.00587e-05
-5.64868e-05
-3.45549e-05
-5.81057e-05
-4.01369e-05
-6.03999e-05
-4.71395e-05
-6.34458e-05
-5.54812e-05
-6.68474e-05
-6.44832e-05
-6.95752e-05
-7.31018e-05
-7.03311e-05
-8.03907e-05
-6.82899e-05
-8.59896e-05
-6.36884e-05
-9.09256e-05
-5.76748e-05
-5.07228e-05
-9.68971e-05
-1.67042e-06
-4.35393e-05
-3.68254e-06
-4.82754e-05
-5.7508e-06
-4.83219e-05
-7.88663e-06
-4.84482e-05
-1.01077e-05
-4.86306e-05
-1.24403e-05
-4.88666e-05
-1.49161e-05
-4.91606e-05
-1.7571e-05
-4.95119e-05
-2.045e-05
-4.99175e-05
-2.36066e-05
-5.03699e-05
-2.71016e-05
-5.08595e-05
-3.10089e-05
-5.13986e-05
-3.54496e-05
-5.20462e-05
-4.06665e-05
-5.28889e-05
-4.7062e-05
-5.40047e-05
-5.50631e-05
-5.54449e-05
-6.47978e-05
-5.71129e-05
-7.58387e-05
-5.85346e-05
-8.7275e-05
-5.88948e-05
-9.80563e-05
-5.75087e-05
-0.000107486
-5.42588e-05
-0.000115675
-4.94865e-05
-4.34828e-05
-0.000122914
-1.91882e-06
-4.16205e-05
-4.14987e-06
-4.60445e-05
-6.43635e-06
-4.60355e-05
-8.78977e-06
-4.60946e-05
-1.12325e-05
-4.61878e-05
-1.37867e-05
-4.63121e-05
-1.64826e-05
-4.64646e-05
-1.93529e-05
-4.66415e-05
-2.24346e-05
-4.68354e-05
-2.57706e-05
-4.70335e-05
-2.941e-05
-4.72198e-05
-3.34134e-05
-4.7395e-05
-3.78676e-05
-4.75918e-05
-4.29163e-05
-4.78401e-05
-4.88063e-05
-4.81146e-05
-5.58825e-05
-4.83688e-05
-6.4413e-05
-4.85824e-05
-7.42998e-05
-4.86478e-05
-8.49607e-05
-4.8234e-05
-9.55434e-05
-4.69262e-05
-0.000105279
-4.45233e-05
-0.00011367
-4.10953e-05
-3.67483e-05
-0.000120405
-2.09776e-06
-3.95229e-05
-4.4675e-06
-4.36749e-05
-6.88374e-06
-4.36193e-05
-9.35719e-06
-4.36214e-05
-1.19097e-05
-4.36354e-05
-1.45619e-05
-4.366e-05
-1.73374e-05
-4.36894e-05
-2.02616e-05
-4.37176e-05
-2.33617e-05
-4.37354e-05
-2.66663e-05
-4.3729e-05
-3.02062e-05
-4.36801e-05
-3.40221e-05
-4.35793e-05
-3.81677e-05
-4.34464e-05
-4.26993e-05
-4.33086e-05
-4.76775e-05
-4.31365e-05
-5.32147e-05
-4.28317e-05
-5.94883e-05
-4.23089e-05
-6.65982e-05
-4.1538e-05
-7.43633e-05
-4.0469e-05
-8.23019e-05
-3.89877e-05
-8.98248e-05
-3.70003e-05
-9.64344e-05
-3.44857e-05
-3.13838e-05
-0.000101799
-2.20655e-06
-3.73164e-05
-4.64214e-06
-4.12392e-05
-7.10964e-06
-4.11515e-05
-9.62166e-06
-4.11092e-05
-1.21952e-05
-4.10616e-05
-1.48487e-05
-4.10064e-05
-1.75993e-05
-4.09386e-05
-2.0465e-05
-4.08517e-05
-2.34633e-05
-4.0737e-05
-2.66102e-05
-4.05821e-05
-2.99211e-05
-4.03691e-05
-3.34181e-05
-4.00824e-05
-3.71376e-05
-3.9727e-05
-4.11144e-05
-3.9332e-05
-4.53428e-05
-3.89082e-05
-4.97796e-05
-3.83951e-05
-5.441e-05
-3.76787e-05
-5.92764e-05
-3.66716e-05
-6.43886e-05
-3.53569e-05
-6.96095e-05
-3.3767e-05
-7.46596e-05
-3.19502e-05
-7.92257e-05
-2.99197e-05
-2.75774e-05
-8.30323e-05
-2.25428e-06
-3.50623e-05
-4.69361e-06
-3.87999e-05
-7.14632e-06
-3.8699e-05
-9.62981e-06
-3.86257e-05
-1.21564e-05
-3.85351e-05
-1.47391e-05
-3.84238e-05
-1.73903e-05
-3.82874e-05
-2.01217e-05
-3.81204e-05
-2.29435e-05
-3.79153e-05
-2.58636e-05
-3.76619e-05
-2.88861e-05
-3.73465e-05
-3.20158e-05
-3.69528e-05
-3.52687e-05
-3.64741e-05
-3.86742e-05
-3.59266e-05
-4.22434e-05
-3.5339e-05
-4.59294e-05
-3.47091e-05
-4.96359e-05
-3.39723e-05
-5.32775e-05
-3.303e-05
-5.68183e-05
-3.18161e-05
-6.02436e-05
-3.0342e-05
-6.35114e-05
-2.86824e-05
-6.65353e-05
-2.68958e-05
-2.4943e-05
-6.91699e-05
-2.24015e-06
-3.2822e-05
-4.62655e-06
-3.64132e-05
-7.0103e-06
-3.63149e-05
-9.41113e-06
-3.62247e-05
-1.18388e-05
-3.61074e-05
-1.43015e-05
-3.5961e-05
-1.68074e-05
-3.57817e-05
-1.93629e-05
-3.5565e-05
-2.19737e-05
-3.53045e-05
-2.4643e-05
-3.49927e-05
-2.73698e-05
-3.46199e-05
-3.01487e-05
-3.41741e-05
-3.2978e-05
-3.36451e-05
-3.5869e-05
-3.30357e-05
-3.88414e-05
-3.23667e-05
-4.18925e-05
-3.1658e-05
-4.49691e-05
-3.08956e-05
-4.79774e-05
-3.00218e-05
-5.08241e-05
-2.89695e-05
-5.34541e-05
-2.77123e-05
-5.58559e-05
-2.62807e-05
-5.80293e-05
-2.47223e-05
-2.30495e-05
-5.99228e-05
-2.1619e-06
-3.066e-05
-4.44528e-06
-3.41298e-05
-6.71909e-06
-3.4041e-05
-8.9995e-06
-3.39443e-05
-1.12931e-05
-3.38136e-05
-1.36058e-05
-3.36483e-05
-1.59417e-05
-3.34457e-05
-1.83042e-05
-3.32023e-05
-2.06957e-05
-3.29128e-05
-2.31167e-05
-3.25717e-05
-2.55643e-05
-3.21723e-05
-2.80318e-05
-3.17068e-05
-3.05106e-05
-3.11664e-05
-3.29981e-05
-3.05483e-05
-3.55024e-05
-2.98624e-05
-3.80315e-05
-2.91291e-05
-4.05692e-05
-2.8358e-05
-4.30639e-05
-2.75271e-05
-4.5445e-05
-2.65884e-05
-4.76545e-05
-2.5503e-05
-4.96636e-05
-2.42715e-05
-5.14589e-05
-2.29268e-05
-2.14989e-05
-5.30096e-05
-2.03559e-06
-2.86243e-05
-4.17999e-06
-3.19851e-05
-6.31257e-06
-3.19085e-05
-8.44576e-06
-3.1811e-05
-1.05834e-05
-3.1676e-05
-1.27287e-05
-3.15032e-05
-1.48835e-05
-3.1291e-05
-1.70492e-05
-3.10365e-05
-1.92261e-05
-3.0736e-05
-2.14125e-05
-3.03853e-05
-2.36052e-05
-2.99798e-05
-2.57978e-05
-2.95144e-05
-2.79813e-05
-2.8983e-05
-3.01484e-05
-2.83812e-05
-3.2299e-05
-2.77119e-05
-3.44385e-05
-2.69898e-05
-3.65628e-05
-2.62338e-05
-3.86428e-05
-2.5447e-05
-4.06282e-05
-2.4603e-05
-4.24728e-05
-2.36585e-05
-4.41544e-05
-2.25898e-05
-4.56668e-05
-2.14143e-05
-2.01714e-05
-4.69945e-05
-1.88143e-06
-2.67428e-05
-3.86655e-06
-2.99998e-05
-5.83747e-06
-2.99375e-05
-7.80673e-06
-2.98415e-05
-9.77601e-06
-2.97068e-05
-1.17458e-05
-2.95333e-05
-1.37169e-05
-2.93198e-05
-1.56894e-05
-2.9064e-05
-1.7662e-05
-2.87635e-05
-1.96321e-05
-2.84152e-05
-2.15961e-05
-2.8016e-05
-2.3548e-05
-2.75627e-05
-2.54794e-05
-2.70517e-05
-2.73813e-05
-2.64794e-05
-2.92484e-05
-2.58448e-05
-3.10834e-05
-2.51548e-05
-3.28905e-05
-2.44268e-05
-3.46593e-05
-2.36781e-05
-3.63568e-05
-2.29054e-05
-3.79407e-05
-2.20748e-05
-3.93841e-05
-2.11462e-05
-4.06829e-05
-2.01154e-05
-1.90188e-05
-4.18356e-05
-1.712e-06
-2.50307e-05
-3.52837e-06
-2.81837e-05
-5.33068e-06
-2.81352e-05
-7.1314e-06
-2.8041e-05
-8.92938e-06
-2.7909e-05
-1.07244e-05
-2.77382e-05
-1.25162e-05
-2.75279e-05
-1.43036e-05
-2.72766e-05
-1.60846e-05
-2.69824e-05
-1.78565e-05
-2.66432e-05
-1.96155e-05
-2.6257e-05
-2.13562e-05
-2.58219e-05
-2.30718e-05
-2.53361e-05
-2.47537e-05
-2.47975e-05
-2.63943e-05
-2.42042e-05
-2.79918e-05
-2.35574e-05
-2.95507e-05
-2.2868e-05
-3.10726e-05
-2.21563e-05
-3.25416e-05
-2.14363e-05
-3.39245e-05
-2.06919e-05
-3.51911e-05
-1.98795e-05
-3.63326e-05
-1.89737e-05
-1.79986e-05
-3.73528e-05
-1.54465e-06
-2.3486e-05
-3.19043e-06
-2.65378e-05
-4.82592e-06
-2.64996e-05
-6.45973e-06
-2.64073e-05
-8.09e-06
-2.62786e-05
-9.71602e-06
-2.61123e-05
-1.13365e-05
-2.59075e-05
-1.29495e-05
-2.56636e-05
-1.45528e-05
-2.53791e-05
-1.61434e-05
-2.50526e-05
-1.77177e-05
-2.46828e-05
-1.9271e-05
-2.42688e-05
-2.07975e-05
-2.38096e-05
-2.22905e-05
-2.33045e-05
-2.37423e-05
-2.27522e-05
-2.51482e-05
-2.21516e-05
-2.65092e-05
-2.1507e-05
-2.78305e-05
-2.08348e-05
-2.91094e-05
-2.01574e-05
-3.03247e-05
-1.94766e-05
-3.14475e-05
-1.87566e-05
-3.24641e-05
-1.7957e-05
-1.70844e-05
-3.33782e-05
-1.38896e-06
-2.20972e-05
-2.87112e-06
-2.50555e-05
-4.34612e-06
-2.50246e-05
-5.81847e-06
-2.49347e-05
-7.28781e-06
-2.48091e-05
-8.75238e-06
-2.46476e-05
-1.02102e-05
-2.44495e-05
-1.16594e-05
-2.42142e-05
-1.30974e-05
-2.3941e-05
-1.45213e-05
-2.36288e-05
-1.59273e-05
-2.32769e-05
-1.73115e-05
-2.28847e-05
-1.86692e-05
-2.2452e-05
-1.99951e-05
-2.19787e-05
-2.1283e-05
-2.14642e-05
-2.25273e-05
-2.09073e-05
-2.37261e-05
-2.03083e-05
-2.48835e-05
-1.96774e-05
-2.60032e-05
-1.90376e-05
-2.7075e-05
-1.84048e-05
-2.80744e-05
-1.7757e-05
-2.89839e-05
-1.70474e-05
-1.62633e-05
-2.98048e-05
-1.242e-06
-2.08551e-05
-2.57098e-06
-2.37266e-05
-3.89281e-06
-2.37028e-05
-5.21262e-06
-2.36149e-05
-6.52938e-06
-2.34925e-05
-7.84097e-06
-2.3336e-05
-9.14536e-06
-2.3145e-05
-1.04407e-05
-2.29189e-05
-1.17245e-05
-2.26572e-05
-1.29937e-05
-2.23596e-05
-1.42452e-05
-2.20254e-05
-1.54755e-05
-2.16545e-05
-1.66808e-05
-2.12468e-05
-1.78569e-05
-2.08025e-05
-1.89994e-05
-2.03217e-05
-2.0103e-05
-1.98037e-05
-2.1164e-05
-1.92475e-05
-2.21834e-05
-1.8658e-05
-2.31666e-05
-1.80543e-05
-2.41116e-05
-1.74597e-05
-2.50008e-05
-1.68677e-05
-2.58153e-05
-1.62328e-05
-1.55255e-05
-2.6553e-05
-1.1022e-06
-1.97527e-05
-2.28649e-06
-2.2542e-05
-3.46245e-06
-2.25265e-05
-4.63819e-06
-2.24392e-05
-5.81041e-06
-2.23202e-05
-6.97749e-06
-2.21688e-05
-8.13767e-06
-2.19848e-05
-9.28891e-06
-2.17678e-05
-1.04289e-05
-2.15174e-05
-1.15549e-05
-2.12336e-05
-1.26641e-05
-2.09161e-05
-1.37536e-05
-2.05649e-05
-1.48203e-05
-2.01801e-05
-1.58607e-05
-1.9762e-05
-1.68714e-05
-1.93109e-05
-1.78482e-05
-1.88268e-05
-1.87871e-05
-1.83087e-05
-1.96868e-05
-1.77583e-05
-2.05514e-05
-1.71896e-05
-2.13833e-05
-1.66278e-05
-2.21721e-05
-1.60788e-05
-2.28999e-05
-1.5505e-05
-1.48639e-05
-2.35615e-05
-9.72896e-07
-1.87799e-05
-2.01952e-06
-2.14952e-05
-3.05846e-06
-2.14875e-05
-4.09709e-06
-2.14004e-05
-5.13261e-06
-2.12844e-05
-6.16354e-06
-2.11377e-05
-7.18825e-06
-2.09601e-05
-8.2046e-06
-2.07515e-05
-9.21033e-06
-2.05117e-05
-1.02031e-05
-2.02407e-05
-1.11806e-05
-1.99385e-05
-1.21403e-05
-1.96052e-05
-1.30793e-05
-1.9241e-05
-1.39949e-05
-1.88463e-05
-1.48842e-05
-1.84217e-05
-1.57438e-05
-1.79672e-05
-1.65701e-05
-1.74824e-05
-1.73609e-05
-1.69675e-05
-1.81186e-05
-1.64318e-05
-1.88479e-05
-1.58985e-05
-1.9544e-05
-1.53827e-05
-2.01919e-05
-1.48572e-05
-1.42724e-05
-2.07834e-05
-8.58214e-07
-1.79215e-05
-1.77477e-06
-2.05787e-05
-2.68545e-06
-2.0577e-05
-3.59479e-06
-2.0491e-05
-4.50198e-06
-2.03772e-05
-5.40517e-06
-2.02345e-05
-6.3027e-06
-2.00626e-05
-7.19256e-06
-1.98617e-05
-8.07259e-06
-1.96317e-05
-8.94066e-06
-1.93726e-05
-9.79472e-06
-1.90843e-05
-1.06327e-05
-1.87671e-05
-1.14523e-05
-1.84214e-05
-1.2251e-05
-1.80476e-05
-1.30263e-05
-1.76464e-05
-1.37755e-05
-1.7218e-05
-1.44954e-05
-1.67624e-05
-1.51836e-05
-1.62793e-05
-1.58414e-05
-1.57739e-05
-1.64746e-05
-1.52653e-05
-1.70835e-05
-1.47738e-05
-1.76563e-05
-1.42845e-05
-1.37464e-05
-1.81824e-05
-7.5695e-07
-1.71645e-05
-1.55165e-06
-1.97839e-05
-2.34084e-06
-1.97877e-05
-3.12928e-06
-1.97025e-05
-3.91604e-06
-1.95904e-05
-4.69931e-06
-1.94512e-05
-5.47733e-06
-1.92847e-05
-6.24825e-06
-1.90909e-05
-7.01006e-06
-1.887e-05
-7.76084e-06
-1.86218e-05
-8.49877e-06
-1.83463e-05
-9.22209e-06
-1.80437e-05
-9.92891e-06
-1.77146e-05
-1.06171e-05
-1.73595e-05
-1.12846e-05
-1.69789e-05
-1.19292e-05
-1.65735e-05
-1.25481e-05
-1.61435e-05
-1.31388e-05
-1.56885e-05
-1.37019e-05
-1.52108e-05
-1.42434e-05
-1.47239e-05
-1.4768e-05
-1.42492e-05
-1.52683e-05
-1.37842e-05
-1.3283e-05
-1.57318e-05
-6.53225e-07
-1.65114e-05
-1.33432e-06
-1.91029e-05
-2.00929e-06
-1.91128e-05
-2.68506e-06
-1.90269e-05
-3.35926e-06
-1.89161e-05
-4.03047e-06
-1.87799e-05
-4.69683e-06
-1.86183e-05
-5.35641e-06
-1.84314e-05
-6.00741e-06
-1.8219e-05
-6.64818e-06
-1.7981e-05
-7.27721e-06
-1.77172e-05
-7.89294e-06
-1.7428e-05
-8.49374e-06
-1.71139e-05
-9.07785e-06
-1.67755e-05
-9.64351e-06
-1.64133e-05
-1.0189e-05
-1.6028e-05
-1.07123e-05
-1.56201e-05
-1.12113e-05
-1.51895e-05
-1.16852e-05
-1.47369e-05
-1.21394e-05
-1.42698e-05
-1.25816e-05
-1.3807e-05
-1.30101e-05
-1.33559e-05
-1.28813e-05
-1.34118e-05
-5.19425e-07
-1.59919e-05
-1.09345e-06
-1.8529e-05