/*--------------------------------*- C++ -*----------------------------------*\
| =========                 |                                                 |
| \\      /  F ield         | OpenFOAM: The Open Source CFD Toolbox           |
|  \\    /   O peration     | Version:  2206                                  |
|   \\  /    A nd           | Website:  www.openfoam.com                      |
|    \\/     M anipulation  |                                                 |
\*---------------------------------------------------------------------------*/
FoamFile
{
    version     2.0;
    format      ascii;
    arch        "LSB;label=32;scalar=64";
    class       volScalarField;
    location    "0.175";
    object      alpha.water;
}
// * * * * * * * * * * * * * * * * * * * * * * * * * * * * * * * * * * * * * //

dimensions      [0 0 0 0 0 0 0];

internalField   nonuniform List<scalar> 
2268
(
1
0.999999
0.999999
1
1
1
1
1
0.999999
0.999999
1
1
1
1
0.999999
0.999998
0.999999
0.999999
0.999999
0.999999
0.999999
1
1
0.999999
1
1
1
1
1
1
1
1
1
1
1
1
0.999998
0.999998
0.999998
0.999999
0.999999
0.999998
0.999999
1
1
1
1
1
1
1
1
1
1
1
1
1
1
1
1
1
1
1
1
1
0.999999
0.999999
1
1
1
1
1
1
1
1
1
1
1
1
1
1
1
1
1
1
1
1
1
1
1
1
1
1
1
1
1
1
1
1
1
1
1
1
1
1
1
1
1
1
1
1
1
1
1
1
1
1
1
1
1
1
1
1
1
0.999999
0.999999
0.999999
1
1
1
1
1
1
1
1
1
1
1
1
1
1
1
1
1
1
1
1
0.999999
0.999999
0.999999
1
1
1
1
1
1
1
1
1
1
1
1
1
1
0.999999
1
1
1
1
1
1
0.999999
0.999999
1
1
1
1
1
1
1
1
1
1
1
1
2.2087e-06
2.2087e-06
1.14195e-05
0.000122972
0.00187265
0.00703558
0.0103934
0.0191264
0.0396109
0.034399
0.0192714
0.00473432
0.000615112
0.000104237
1.34002e-05
1.21338e-06
6.7215e-08
4.41987e-09
4.53676e-09
2.20807e-06
3.21802e-06
1.9953e-05
0.000241949
0.00232029
0.00355519
0.0116442
0.145584
0.227284
0.201894
0.111949
0.0121525
0.00271895
0.000622603
0.000105316
1.31529e-05
8.15557e-07
2.59453e-08
4.53675e-09
2.15905e-06
3.03773e-06
7.20938e-05
0.000288049
0.000467061
0.00650811
0.276947
0.492532
0.44881
0.331568
0.161379
0.0135694
0.00441681
0.00103459
0.000157543
1.53805e-05
9.17243e-07
4.46404e-08
2.00321e-08
1.89152e-06
2.15862e-06
4.08575e-06
1.32616e-05
0.00501331
0.303417
0.634856
0.598648
0.340625
0.0829447
0.00927728
0.0139353
0.0119404
0.00281017
0.000217348
9.94949e-06
5.90651e-07
2.66633e-08
1.31422e-08
1.81927e-06
1.8912e-06
-4.15983e-07
0.00482346
0.317023
0.760264
0.738809
0.493165
0.1014
0.00927727
0.00439029
0.00627139
0.00565799
0.00210551
0.000242309
5.18406e-06
3.04814e-07
1.31421e-08
5.67049e-09
1.80513e-06
1.81898e-06
0.017668
0.354356
0.876684
0.871312
0.786529
0.199483
0.0110973
0.00333194
0.00147037
0.00198934
0.000999313
0.000307852
6.54835e-05
2.5711e-06
1.36826e-07
5.67047e-09
2.21459e-09
1.80513e-06
0.122819
0.549813
0.969754
0.946614
0.918912
0.330664
0.0232166
0.00397297
0.00101982
0.000461273
0.000429431
0.00038787
8.362e-05
1.7367e-05
1.20128e-06
5.54283e-08
2.21459e-09
7.02222e-10
0.636176
0.896771
0.996906
0.981854
0.969754
0.767067
0.16444
0.00800054
0.00147439
0.000229838
5.60059e-05
0.000102596
9.9783e-05
3.18039e-05
4.11989e-06
4.22158e-07
2.06974e-08
7.02222e-10
1.46735e-10
1
0.999999
0.999999
1
1
1
1
1
1
0.999999
0.999999
0.999999
1
1
1
1
1
1
1
1
1
1
1
0.999999
0.999999
0.999999
1
1
1
1
1
1
0.999999
0.999999
0.999999
1
1
1
1
1
1
1
1
1
1
1
0.999999
0.999999
0.999999
1
1
1
1
1
1
1
1
1
1
1
1
1
1
1
1
1
1
1
1
0.999999
0.999999
1
1
1
1
1
1
1
1
1
1
1
1
1
1
1
1
1
1
1
1
1
1
1
1
1
1
1
1
1
1
1
1
1
1
1
1
1
1
1
1
1
1
1
0.999999
1
1
1
1
1
1
1
1
1
1
1
1
1
1
1
1
0.999999
0.999999
0.999999
0.999998
0.999997
0.999996
0.99999
0.999999
0.999999
1
1
1
1
1
1
0.999999
0.999999
0.999999
0.999999
0.999998
0.999998
0.999997
0.999996
0.999995
0.999992
0.999988
0.999982
0.999972
0.999945
0.999916
0.999999
0.999996
0.999997
0.999997
0.999997
0.999997
0.999996
0.999996
0.999995
0.999994
0.999992
0.99999
0.999987
0.999983
0.999977
0.999969
0.999956
0.999937
0.999922
0.99985
0.999751
0.999605
0.999346
0.99999
0.99997
0.999975
0.999977
0.999976
0.999974
0.999971
0.999967
0.999961
0.999954
0.999943
0.999928
0.999908
0.999879
0.999838
0.999779
0.999696
0.999572
0.999356
0.999106
0.998375
0.997421
0.996107
0.999915
0.999801
0.999833
0.999839
0.99983
0.999815
0.999795
0.999768
0.999733
0.999685
0.999616
0.999521
0.999391
0.99921
0.998958
0.998602
0.99811
0.997366
0.996194
0.994219
0.99103
0.969524
0.947685
0.999343
0.998765
0.998925
0.998935
0.998872
0.99878
0.998662
0.998501
0.998286
0.997998
0.997588
0.997026
0.99627
0.995227
0.993823
0.990361
0.977213
0.946311
0.889451
0.794599
0.634065
0.452299
0.32385
0.995317
0.989959
0.991675
0.991014
0.989012
0.985892
0.981597
0.973482
0.961325
0.944114
0.918894
0.883776
0.837813
0.775812
0.697944
0.601425
0.486588
0.350434
0.226626
0.123233
0.0322802
8.43625e-07
1.54857e-06
0.658878
0.572916
0.588449
0.576109
0.552396
0.521327
0.482451
0.435394
0.384162
0.32794
0.270924
0.213728
0.158819
0.10736
0.0625071
0.0247416
-1.09097e-13
2.57851e-11
5.76172e-10
5.07328e-09
3.62378e-08
2.35161e-07
8.44142e-07
0.0377887
0.0167733
0.0185526
0.0139651
0.00908749
0.0037649
-1.77722e-14
-3.70074e-18
-1.05148e-23
0
-7.22801e-21
1.12938e-22
3.5293e-24
5.51454e-26
-9.78058e-10
-7.59378e-10
-3.80233e-10
-3.87804e-17
2.66795e-11
5.80623e-10
5.07024e-09
3.61676e-08
2.35161e-07
-4.00167e-19
-3.49474e-19
-6.54304e-18
-2.92377e-16
-6.14886e-15
-3.46315e-13
-2.3942e-12
-1.71205e-11
-1.50042e-10
-1.08207e-09
-5.28966e-09
-1.51435e-08
-1.30212e-08
-8.71973e-09
-5.42469e-09
-3.48664e-09
-1.54248e-09
-4.39412e-12
8.02121e-11
2.1938e-09
1.91084e-08
1.46499e-07
9.5824e-07
-7.78992e-19
-8.80041e-19
-1.76775e-17
-7.60651e-16
-2.86432e-14
-7.00468e-13
-4.94337e-12
-3.65867e-11
-3.12294e-10
-2.1307e-09
-9.87206e-09
-2.42752e-08
-1.86423e-08
-1.14822e-08
-6.63984e-09
-3.66934e-09
-9.796e-10
9.67155e-10
1.33356e-08
1.10427e-07
7.55104e-07
4.11245e-06
4.90462e-05
-3.19355e-20
-1.17194e-18
-3.24584e-17
-1.25189e-15
-3.9328e-14
-8.46412e-13
-6.77446e-12
-5.45248e-11
-4.3824e-10
-2.64154e-09
-1.08904e-08
-2.39908e-08
-1.51018e-08
-8.24842e-09
-4.28572e-09
-1.79472e-09
1.05422e-10
3.99427e-09
3.6626e-08
2.60651e-07
1.72249e-06
1.19724e-05
0.000132864
-2.38801e-20
-1.51266e-18
-6.64461e-17
-2.16366e-15
-5.16926e-14
-8.41252e-13
-8.24759e-12
-7.09235e-11
-4.97165e-10
-2.49583e-09
-8.12014e-09
-1.40609e-08
-7.33119e-09
-3.65313e-09
-1.59819e-09
-1.20455e-10
-1.31652e-25
2.01457e-09
1.80614e-08
1.08432e-07
4.38997e-07
2.85484e-06
0.000158323
-1.7588e-20
-1.62372e-18
-7.32786e-17
-2.06641e-15
-4.10938e-14
-5.98696e-13
-6.4845e-12
-5.18772e-11
-2.9869e-10
-1.17895e-09
-2.92645e-09
-3.8569e-09
-1.91412e-09
-8.75166e-10
-2.41988e-10
-1.47765e-17
1.1867e-10
1.18118e-09
8.37176e-09
4.13463e-08
1.8033e-07
7.05621e-07
2.53695e-06
-3.40203e-24
-1.39058e-22
-2.55134e-21
-2.82919e-20
-2.04915e-19
-9.53546e-19
-2.33914e-18
1.02716e-34
3.28692e-33
-5.82872e-54
1.45515e-58
-5.71712e-37
6.73167e-30
-7.05149e-20
-2.21312e-19
2.31223e-12
1.69521e-11
9.25174e-11
5.03836e-10
2.42511e-09
9.85462e-09
3.5734e-08
1.17623e-07
-3.54932e-24
-1.48509e-22
-2.83206e-21
-3.28599e-20
-2.54481e-19
-1.32912e-18
-4.19888e-18
-2.25034e-18
4.47777e-54
1.04954e-16
1.36931e-14
6.07091e-14
7.04568e-14
4.91607e-15
3.94227e-14
2.95281e-13
1.65964e-12
1.23493e-11
6.80412e-11
3.42044e-10
1.55792e-09
6.45975e-09
2.44674e-08
-2.43061e-24
-1.04245e-22
-2.08234e-21
-2.5633e-20
-2.16642e-19
-1.31446e-18
-5.78273e-18
-1.80433e-17
-3.70712e-17
-3.93905e-17
-1.64346e-33
8.13887e-18
1.20355e-16
2.28617e-16
1.41089e-15
7.97503e-15
-1.13848e-13
1.95512e-13
8.34227e-13
3.69378e-12
1.68915e-11
6.00139e-11
-6.25897e-10
-8.15139e-25
-3.53775e-23
-7.24525e-22
-9.20609e-21
-8.09952e-20
-5.17995e-19
-2.45056e-18
-8.51752e-18
-2.09619e-17
-3.31615e-17
-2.47852e-17
3.4834e-19
1.68762e-17
1.17906e-16
7.24148e-16
4.85968e-15
2.79194e-14
8.06219e-14
1.51476e-13
2.15322e-13
1.34567e-13
-5.80821e-12
-5.80284e-12
-2.45864e-29
-3.6943e-28
-1.61251e-27
-1.49078e-37
-4.15679e-35
-3.94099e-33
-2.04755e-31
-1.78338e-28
4.36995e-22
4.96085e-20
3.96437e-19
1.29986e-18
7.00236e-18
9.62428e-17
1.05992e-15
7.14207e-15
2.94273e-14
8.40499e-14
1.75058e-13
2.5129e-13
2.89671e-13
4.26673e-13
4.46664e-13
2.28076e-50
-5.81721e-48
1.8684e-46
1.4029e-30
5.84962e-29
1.65419e-27
3.51796e-26
6.42341e-25
1.02833e-23
1.84545e-22
3.04923e-21
3.42514e-20
3.70723e-19
6.66847e-18
1.40829e-16
1.65834e-15
1.3193e-14
7.10863e-14
2.37094e-13
4.94039e-13
6.8077e-13
7.54619e-13
7.56674e-13
1.0833e-38
1.42995e-36
9.38847e-35
4.11789e-33
1.35699e-31
6.27448e-31
-2.84225e-30
-5.56725e-28
-1.88342e-26
-7.70392e-27
8.36491e-24
1.22632e-22
1.3822e-21
1.26052e-20
3.09351e-19
2.69469e-17
5.1541e-16
6.69442e-15
5.81337e-14
2.51789e-13
5.52443e-13
7.59227e-13
8.31067e-13
0
0
-1.57824e-38
4.00549e-37
-3.90686e-33
-1.13594e-31
-2.97275e-30
-6.55084e-29
-1.2504e-27
-2.33544e-27
7.37809e-27
1.6644e-25
2.02801e-24
2.00656e-23
5.41329e-22
8.41743e-20
2.1537e-18
2.63124e-17
2.33539e-16
1.3376e-15
4.68802e-15
1.06278e-14
1.74442e-14
-7.94783e-40
-1.72646e-38
-5.23755e-38
-5.26033e-37
-1.68107e-35
-4.88353e-34
-1.18045e-32
-2.43837e-31
-1.22386e-30
1.86058e-32
2.83929e-31
3.98706e-30
9.40544e-29
1.10077e-27
4.31735e-25
1.32213e-22
3.86887e-21
5.31658e-20
5.63131e-19
3.70706e-18
1.32563e-17
2.81171e-17
4.16542e-17
-7.00878e-46
0
3.3986e-58
1.01964e-43
4.20574e-42
1.39093e-40
3.84129e-39
9.1092e-38
1.89656e-36
3.50747e-35
5.88495e-34
1.71323e-32
2.54098e-31
3.04887e-30
5.13139e-29
7.26073e-27
3.07553e-25
5.00338e-24
4.54587e-23
2.2393e-22
7.2521e-22
2.23934e-21
1.2205e-20
0
9.12129e-51
8.29233e-49
5.00831e-47
2.25541e-45
7.17666e-44
1.96109e-42
4.53683e-41
7.87874e-40
8.43887e-39
3.35407e-37
1.8354e-35
3.01681e-34
4.04409e-33
5.81462e-32
8.70825e-30
8.16297e-28
1.76487e-26
2.13948e-25
1.354e-24
4.62379e-24
9.68973e-24
4.56102e-23
4.93507e-57
1.00528e-54
1.01185e-52
-5.95456e-51
-3.49735e-48
-1.32438e-46
-5.16249e-45
-1.8261e-43
-5.81111e-42
-1.47806e-40
-9.42348e-41
5.40291e-39
1.08681e-37
1.75803e-36
2.41443e-35
2.57372e-33
8.56298e-31
2.8883e-29
4.75438e-28
3.93777e-27
1.61957e-26
2.3948e-26
2.64064e-26
3.22885e-64
7.36137e-62
-9.18589e-55
-1.5784e-52
-4.89262e-51
-2.01258e-49
-7.48327e-48
-2.37583e-46
-7.13941e-45
-4.33302e-44
3.73946e-47
7.56911e-46
1.3928e-44
3.04645e-43
8.25272e-42
7.8753e-38
1.39818e-34
1.33395e-32
3.19018e-31
3.5044e-30
1.72717e-29
2.81644e-29
5.52477e-34
1.33341e-68
-1.32134e-62
-1.53177e-60
-3.96252e-59
-1.88643e-57
-7.68738e-56
-2.72732e-54
-8.26997e-53
-8.64465e-52
1.93946e-52
5.0443e-51
1.19909e-49
5.04926e-48
1.08689e-46
2.07044e-45
3.43453e-44
1.0541e-41
5.14398e-39
1.85493e-37
2.5796e-36
1.547e-35
2.89173e-35
4.83365e-37
-2.12449e-69
2.22042e-70
3.26792e-68
3.1907e-66
2.33437e-64
1.36087e-62
6.33895e-61
2.79414e-59
9.57494e-58
3.06497e-56
8.63948e-55
3.7784e-53
1.4102e-51
3.35119e-50
7.27742e-49
1.40794e-47
2.80846e-46
1.57479e-43
4.0524e-41
1.10778e-39
9.6013e-39
2.0827e-38
4.52076e-40
1.0138e-77
3.5063e-75
5.99143e-73
6.79793e-71
2.49233e-69
-1.2431e-66
1.10436e-65
-3.62325e-63
-1.85955e-61
-9.87734e-60
-4.20003e-58
1.81386e-57
1.14207e-55
3.27657e-54
8.24984e-53
1.95837e-51
4.14391e-50
2.42455e-47
1.96516e-44
8.28484e-43
7.9089e-42
1.77325e-41
1.9756e-43
1.25251e-82
5.08208e-80
1.02508e-77
-1.92751e-74
-9.25285e-72
-6.02138e-71
-3.28593e-68
-1.82071e-66
-1.01822e-64
-5.00813e-63
-3.25364e-62
2.16663e-61
1.12879e-59
3.80593e-58
1.1295e-56
3.1645e-55
8.00123e-54
9.68557e-52
2.14547e-48
2.00199e-46
2.4726e-45
6.158e-45
2.16786e-46
1.02612e-87
5.25535e-85
-4.81232e-80
-1.87141e-77
-1.41927e-76
-8.03373e-74
-5.16669e-72
-3.17105e-70
-1.81539e-68
-3.20955e-67
2.85366e-67
1.92824e-65
1.21648e-63
4.96653e-62
1.7782e-60
6.02345e-59
1.94105e-57
5.69831e-56
3.90154e-53
3.7134e-50
1.1389e-48
3.87551e-48
-1.03025e-49
2.17181e-93
-3.13071e-86
-6.56272e-84
-4.386e-83
-5.09375e-80
-4.05416e-78
-3.02728e-76
-1.91105e-74
-5.49491e-73
1.43475e-73
9.09515e-72
6.46928e-70
6.68768e-68
3.61275e-66
1.62442e-64
6.91865e-63
2.80901e-61
1.05517e-59
5.45288e-58
3.56358e-54
4.66566e-52
2.28346e-51
-4.99958e-51
-1.14429e-94
6.28411e-97
3.68132e-94
-1.97118e-88
2.8932e-89
5.26874e-87
3.60433e-85
-7.55139e-83
-3.73608e-81
-6.1254e-79
-8.37215e-77
5.30063e-75
1.18808e-72
1.06661e-70
6.6128e-69
3.87012e-67
2.16044e-65
1.15538e-63
5.936e-62
2.94081e-60
1.43028e-58
6.92227e-57
-5.70881e-54
0
5.61541e-106
1.01465e-102
7.12094e-100
-6.48596e-96
-1.64907e-91
-8.68046e-89
-9.95487e-87
-1.57053e-84
-2.31205e-82
-2.86554e-80
-6.3301e-80
8.42244e-79
1.58373e-76
1.79463e-74
1.73808e-72
1.60724e-70
1.42491e-68
1.21453e-66
9.97831e-65
7.92872e-63
6.29673e-61
1.49767e-59
0
1.02454e-121
1.92639e-118
-5.84095e-105
-1.36682e-100
-1.07402e-97
-1.98584e-95
-5.35922e-93
-1.26924e-90
-2.72905e-88
-1.29439e-86
-1.86007e-91
1.68884e-89
7.6023e-87
4.61933e-84
2.18336e-81
6.42428e-79
1.76947e-76
4.67423e-74
1.18945e-71
2.92002e-69
7.07593e-67
-3.50779e-63
0
-7.19019e-123
-2.79323e-121
-9.57554e-117
-1.76793e-113
-2.42542e-111
-5.39447e-108
-4.11273e-105
-2.78102e-102
-7.59632e-100
-7.59272e-103
-1.19388e-100
-5.32704e-98
-3.82953e-96
-9.56034e-96
-1.51128e-95
-6.39311e-93
-2.51989e-90
-9.09033e-88
-3.07729e-85
-9.74656e-83
-2.90934e-80
-1.07053e-67
1
1
1
0.999999
1
1
1
0.999994
1
1
0.99999
0.999885
0.999999
0.999989
0.999841
0.998505
0.99999
0.99989
0.998615
0.876142
0.99991
0.999152
0.925376
0.302354
0.999342
0.994742
0.336605
0.00738864
0.996116
0.474535
0.0106557
0.0011281
0.862237
0.0820202
0.00102626
5.39964e-05
0.163965
0.00100949
5.39895e-05
-3.26868e-07
0.0073883
3.19656e-05
-3.73429e-07
2.52161e-08
0.000829443
-5.95606e-08
7.28572e-10
1.55778e-08
3.37378e-05
-6.81709e-08
1.8357e-10
6.81201e-09
3.85481e-06
-4.90004e-08
5.04814e-11
7.44431e-10
9.03562e-06
0.00114064
4.231e-11
7.48965e-11
0.000318905
0.00270263
2.34707e-11
1.25213e-11
0.00136728
0.00270898
2.39774e-12
2.05171e-12
0.0017041
0.002563
3.15139e-13
4.7491e-13
0.000299505
0.00122013
9.07117e-14
1.21407e-13
3.593e-07
0.000123992
4.45155e-14
2.09862e-14
1.43244e-07
2.35105e-06
6.83126e-15
5.79882e-16
1.52777e-07
4.62204e-07
1.2634e-07
3.73945e-17
-5.51063e-12
2.13133e-08
5.79147e-08
2.93861e-18
2.4776e-13
7.37186e-15
-8.33277e-16
9.5036e-19
4.50429e-13
1.39278e-15
1.15341e-18
9.00809e-19
8.4803e-13
6.2857e-13
4.31826e-15
5.04198e-20
2.46857e-14
1.33912e-14
1.89455e-17
7.15824e-21
5.53911e-17
5.96159e-17
8.41609e-19
3.38403e-22
1.2898e-19
3.17429e-19
3.54078e-19
3.51602e-23
1.15381e-21
3.21421e-21
3.58771e-21
3.60416e-25
5.38784e-24
1.82575e-23
2.18288e-23
5.3737e-27
8.20605e-27
3.43722e-26
4.43937e-26
4.93366e-29
7.73869e-33
1.95254e-31
8.78524e-31
1.40511e-30
2.16683e-36
3.50728e-34
4.21341e-33
1.26577e-32
1.9821e-40
3.42151e-37
1.18134e-35
8.45214e-35
4.37602e-45
7.37563e-42
1.11548e-38
3.83637e-37
3.86496e-48
1.60958e-45
7.69246e-42
1.39283e-39
9.28784e-51
1.75913e-48
3.92468e-45
4.17879e-42
9.45918e-54
1.75238e-51
2.03586e-48
1.01964e-44
1.79135e-57
7.47958e-55
1.56877e-51
1.66963e-47
1.24141e-62
2.49028e-59
7.60089e-55
1.6766e-50
-9.3989e-67
6.54867e-62
1.06851e-56
1.59544e-54
0.999994
0.99994
0.999514
0.996906
0.886982
0.377982
0.0114065
0.0021652
0.000280149
2.88508e-05
2.85227e-05
2.59801e-05
2.16977e-05
6.89006e-06
9.14483e-07
8.35092e-08
4.99043e-09
1.74997e-10
2.4763e-11
0.999942
0.999514
0.996906
0.803405
0.212685
0.00866469
0.00169907
0.000274232
3.90966e-05
5.41157e-06
3.67435e-06
3.27075e-06
4.16449e-06
1.29889e-06
1.50204e-07
1.22692e-08
6.5101e-10
2.24889e-11
3.43889e-12
0.999274
0.989563
0.733844
0.138152
0.00548528
0.00109395
0.000258262
4.92111e-05
4.09761e-06
7.40433e-07
3.69307e-07
6.35884e-07
7.27004e-07
2.20222e-07
2.44808e-08
1.97672e-09
1.20698e-10
1.54863e-11
7.71968e-13
0.942014
0.577692
0.0387369
0.00338138
0.000713156
0.000187575
5.01427e-05
6.02081e-06
6.87959e-07
1.20872e-07
7.39819e-08
1.10083e-07
1.1847e-07
3.52289e-08
3.7156e-09
3.32496e-10
3.06266e-11
5.43439e-12
1.31326e-13
0.361904
0.0111547
0.00231947
0.000412974
0.000210243
3.40231e-05
7.06498e-06
9.06438e-07
1.12295e-07
2.18516e-08
1.36623e-08
1.77561e-08
1.8361e-08
5.38429e-09
5.40644e-10
5.92587e-11
1.17778e-11
7.78242e-13
1.77258e-14
0.00842258
0.00159061
0.000241118
9.47736e-05
1.9361e-05
4.93135e-06
1.07016e-06
1.36979e-07
1.91114e-08
4.17144e-09
2.67347e-09
2.98374e-09
2.74983e-09
7.93548e-10
9.45786e-11
1.75885e-11
2.27765e-12
9.6063e-14
2.32753e-15
0.00116577
0.000136716
4.83962e-05
1.16691e-05
2.82484e-06
7.15716e-07
1.59858e-07
2.20392e-08
3.5898e-09
9.8762e-10
6.16435e-10
5.85132e-10
4.65487e-10
1.34777e-10
2.07139e-11
3.75655e-12
2.63509e-13
1.20857e-14
2.94001e-16
8.44542e-05
2.31128e-05
6.08865e-06
1.59961e-06
4.28039e-07
1.07551e-07
2.4733e-08
3.87214e-09
8.61344e-10
3.53466e-10
2.20581e-10
1.32934e-10
8.44303e-11
2.30635e-11
4.95338e-12
5.12135e-13
3.32191e-14
1.51155e-15
3.65367e-17
4.48783e-06
2.7308e-06
7.37303e-07
2.25077e-07
6.40471e-08
1.66889e-08
4.14545e-09
8.65282e-10
2.81439e-10
2.06587e-10
1.04378e-10
4.95244e-11
2.10838e-11
5.47922e-12
7.5876e-13
6.37493e-14
4.16753e-15
1.88047e-16
4.52931e-18
4.61708e-07
2.74511e-07
9.9477e-08
3.30817e-08
1.0013e-08
2.87553e-09
8.78857e-10
2.72706e-10
1.73081e-10
9.48482e-11
3.61415e-11
1.26204e-11
4.06161e-12
8.73971e-13
9.13516e-14
7.92213e-15
5.13482e-16
2.30689e-17
5.54027e-19
8.1877e-08
4.03156e-08
1.44808e-08
5.25617e-09
1.82287e-09
6.3115e-10
2.41001e-10
1.5092e-10
8.27355e-11
2.83989e-11
7.71724e-12
1.94689e-12
5.46827e-13
1.04005e-13
1.12177e-14
9.63812e-16
6.19964e-17
2.77915e-18
6.64081e-20
1.27551e-08
5.78096e-09
2.43296e-09
1.04406e-09
4.19164e-10
1.7801e-10
1.30029e-10
7.04351e-11
2.41471e-11
5.81588e-12
1.18712e-12
2.60241e-13
6.78121e-14
1.2575e-14
1.34473e-15
1.14446e-16
7.31941e-18
3.2809e-19
7.78559e-21
2.16867e-09
1.06635e-09
5.45056e-10
2.83885e-10
1.52024e-10
1.06964e-10
5.84509e-11
2.06675e-11
4.71173e-12
9.0785e-13
1.65023e-13
3.41447e-14
8.28327e-15
1.48195e-15
1.56812e-16
1.32456e-17
8.4365e-19
3.78859e-20
8.91089e-22
4.66317e-10
3.25969e-10
2.16669e-10
1.64971e-10
8.64076e-11
4.75478e-11
1.67427e-11
3.94332e-12
7.14489e-13
1.27288e-13
2.23552e-14
4.34747e-15
9.80386e-16
1.6945e-16
1.77702e-17
1.4925e-18
9.48068e-20
4.27273e-21
9.94104e-23
2.15982e-10
2.22799e-10
1.29795e-10
7.99234e-11
3.60995e-11
1.27484e-11
3.13087e-12
5.77858e-13
9.84762e-14
1.71777e-14
2.90361e-15
5.30042e-16
1.12068e-16
1.8784e-17
1.95554e-18
1.63553e-19
1.0375e-20
4.70013e-22
1.0795e-23
1.0208e-10
1.11144e-10
6.25444e-11
2.68984e-11
9.15244e-12
2.26166e-12
4.41831e-13
7.68801e-14
1.30447e-14
2.2113e-15
3.5794e-16
6.18771e-17
1.23696e-17
2.01706e-18
2.08795e-19
1.74152e-20
1.10439e-21
5.03686e-23
1.1396e-24
3.01705e-11
4.50069e-11
2.03087e-11
6.09566e-12
1.51225e-12
3.0306e-13
5.62063e-14
9.84138e-15
1.63953e-15
2.6879e-16
4.19249e-17
6.9239e-18
1.31767e-18
2.09652e-19
2.1613e-20
1.79998e-21
1.14241e-22
5.25306e-24
1.16829e-25
8.83038e-12
1.65826e-11
4.19938e-12
9.25798e-13
1.90096e-13
3.67336e-14
6.88528e-15
1.19161e-15
1.93609e-16
3.08751e-17
4.67564e-18
7.42975e-19
1.35408e-19
2.10805e-20
2.16755e-21
1.8046e-22
1.14738e-23
5.32681e-25
1.16199e-26
2.45649e-12
4.54858e-12
5.68404e-13
1.08731e-13
2.17875e-14
4.27609e-15
7.95173e-16
1.34881e-16
2.15037e-17
3.35968e-18
4.97078e-19
7.64717e-20
1.34187e-20
2.04941e-21
2.10461e-22
1.75363e-23
1.118e-24
5.24763e-26
1.12032e-27
4.80486e-13
7.85745e-13
6.00686e-14
1.15938e-14
2.3753e-15
4.65385e-16
8.52731e-17
1.42828e-17
2.25181e-18
3.46821e-19
5.04125e-20
7.55115e-21
1.28189e-21
1.92545e-22
1.97748e-23
1.65077e-24
1.05617e-25
5.01881e-27
1.04636e-28
5.5766e-14
7.92338e-14
5.67579e-15
1.14758e-15
2.38275e-16
4.65448e-17
8.49084e-18
1.41793e-18
2.22613e-19
3.39966e-20
4.8805e-21
7.15465e-22
1.18023e-22
1.74753e-23
1.79715e-24
1.50458e-25
9.66846e-27
4.65701e-28
9.46204e-30
3.376e-15
4.90626e-15
4.78649e-16
1.01799e-16
2.16254e-17
4.27708e-18
7.86655e-19
1.32126e-19
2.0796e-20
3.16707e-21
4.51309e-22
6.50619e-23
1.04716e-23
1.53176e-24
1.57927e-25
1.32725e-26
8.57308e-28
4.19042e-29
8.28111e-31
2.47927e-16
3.23555e-16
3.43885e-17
8.00921e-18
1.77894e-18
3.62083e-19
6.7907e-20
1.15685e-20
1.83766e-21
2.80644e-22
3.9889e-23
5.68027e-24
8.95334e-25
1.2965e-25
1.34167e-26
1.13294e-27
7.3612e-29
3.65481e-30
7.01294e-32
2.72868e-17
2.74633e-17
2.08841e-18
5.6385e-19
1.33321e-19
2.83085e-20
5.47054e-21
9.53013e-22
1.53782e-22
2.36788e-23
3.37235e-24
4.76343e-25
7.37847e-26
1.05972e-26
1.10189e-27
9.3568e-29
6.11968e-30
3.08886e-31
5.74644e-33
2.6011e-18
1.48758e-18
1.10732e-19
3.59438e-20
9.14779e-21
2.04993e-21
4.1213e-22
7.3989e-23
1.22035e-23
1.9044e-24
2.72963e-25
3.83933e-26
5.86291e-27
8.36639e-28
8.74972e-29
7.47739e-30
4.92584e-31
2.52923e-32
4.55656e-34
1.45652e-19
4.95312e-20
5.3595e-21
2.09544e-21
5.77739e-22
1.37971e-22
2.91073e-23
5.42382e-24
9.19767e-25
1.46187e-25
2.11754e-26
2.97669e-27
4.4944e-28
6.38245e-29
6.71962e-30
5.78338e-31
3.83951e-32
2.00646e-33
3.49738e-35
5.34733e-21
1.72993e-21
2.47437e-22
1.12531e-22
3.37818e-23
8.66408e-24
1.93255e-24
3.76222e-25
6.59549e-26
1.07266e-26
1.57638e-27
2.22227e-28
3.32644e-29
4.70763e-30
4.99355e-31
4.33117e-32
2.89911e-33
1.54239e-34
2.5997e-36
1.63011e-22
6.03305e-23
1.11149e-23
5.60542e-24
1.83934e-24
5.09631e-25
1.20978e-25
2.47518e-26
4.50868e-27
7.53624e-28
1.12781e-28
1.59951e-29
2.37947e-30
3.36005e-31
3.59334e-32
3.14263e-33
2.12168e-34
1.14929e-35
1.87269e-37
4.93716e-24
1.81262e-24
4.83622e-25
2.60794e-25
9.37134e-26
2.81863e-26
7.16206e-27
1.54842e-27
2.94463e-28
5.07948e-29
7.76775e-30
1.11161e-30
1.64712e-31
2.32318e-32
2.50621e-33
2.21109e-34
1.50605e-35
8.30571e-37
1.30841e-38
1.49714e-25
5.32552e-26
1.99521e-26
1.13668e-26
4.48517e-27
1.47085e-27
4.02197e-28
9.2351e-29
1.84168e-29
3.2914e-30
5.16032e-31
7.47222e-32
1.10503e-32
1.55807e-33
1.69618e-34
1.51007e-35
1.03789e-36
5.826e-38
8.8759e-40
3.9891e-27
1.59988e-27
7.58419e-28
4.63818e-28
2.02182e-28
7.26345e-29
2.14874e-29
5.26569e-30
1.10587e-30
2.05519e-31
3.31371e-32
4.8678e-33
7.19795e-34
1.01519e-34
1.11551e-35
1.00236e-36
6.95227e-38
3.97043e-39
5.85349e-41
8.90816e-29
4.28119e-29
2.61575e-29
1.77166e-29
8.59582e-30
3.40298e-30
1.09523e-30
2.87844e-31
6.39239e-32
1.23975e-32
2.06177e-33
3.08012e-34
4.56159e-35
6.4382e-36
7.14067e-37
6.47652e-38
4.53279e-39
2.63211e-40
3.75824e-42
1.24586e-30
1.0716e-30
8.24574e-31
6.31503e-31
3.44855e-31
1.51585e-31
5.34073e-32
1.51289e-32
3.56727e-33
7.24451e-34
1.24618e-34
1.89768e-35
2.81905e-36
3.9825e-37
4.4576e-38
4.08042e-39
2.88117e-40
1.69976e-41
2.35312e-43
1.92295e-32
2.34572e-32
2.39284e-32
2.00455e-32
1.31052e-32
6.43215e-33
2.49843e-33
7.66847e-34
1.92766e-34
4.1129e-35
7.33751e-36
1.14146e-36
1.70328e-37
2.40854e-38
2.71953e-39
2.51173e-40
1.7887e-41
1.07106e-42
1.43948e-44
2.45476e-34
4.59679e-34
5.98518e-34
5.72173e-34
4.75729e-34
2.60445e-34
1.12444e-34
3.76034e-35
1.01188e-35
2.27562e-36
4.22133e-37
6.72272e-38
1.00898e-38
1.42792e-39
1.62542e-40
1.51392e-41
1.08684e-42
6.59764e-44
8.62109e-46
2.73706e-36
7.80645e-36
1.30164e-35
1.57037e-35
1.58612e-35
1.01007e-35
4.88315e-36
1.78979e-36
5.17718e-37
1.2311e-37
2.38047e-38
3.88876e-39
5.87769e-40
8.32261e-41
9.54248e-42
8.95681e-43
6.47799e-44
3.9813e-45
5.06639e-47
2.28768e-38
1.12017e-37
2.51543e-37
4.14323e-37
4.83898e-37
3.7696e-37
2.0529e-37
8.29794e-38
2.59102e-38
6.5348e-39
1.32021e-39
2.21653e-40
3.37797e-41
4.78376e-42
5.51867e-43
5.21523e-44
3.79703e-45
2.35894e-46
2.92867e-48
1.32631e-40
1.30281e-39
4.45397e-39
1.01046e-38
1.39131e-38
1.35611e-38
8.38512e-39
3.76153e-39
1.27318e-39
3.41582e-40
7.22609e-41
1.24912e-41
1.92175e-42
2.72066e-43
3.15377e-44
2.99712e-45
2.19453e-46
1.37577e-47
1.66957e-49
5.6119e-43
1.23445e-41
6.98903e-41
2.21928e-40
3.95696e-40
4.60994e-40
3.34261e-40
1.67389e-40
6.16674e-41
1.7649e-41
3.91755e-42
6.98431e-43
1.08604e-43
1.53634e-44
1.7868e-45
1.70518e-46
1.25423e-47
7.91899e-49
9.4123e-51
1.41913e-45
8.83295e-44
9.48492e-43
4.48818e-42
1.0877e-41
1.50821e-41
1.30761e-41
7.34886e-42
2.95797e-42
9.05243e-43
2.11202e-43
3.88917e-44
6.11946e-45
8.64601e-46
1.00718e-46
9.63582e-48
7.11014e-49
4.51155e-50
5.00654e-52
1.73356e-48
4.44681e-46
1.08336e-44
8.32448e-44
2.77685e-43
4.48273e-43
4.39499e-43
2.9506e-43
1.33966e-43
4.48261e-44
1.1146e-44
2.13055e-45
3.38861e-46
4.79173e-47
5.60104e-48
5.39723e-49
4.00324e-50
2.55397e-51
2.71955e-53
2.21693e-53
8.3794e-49
6.23411e-47
1.25698e-45
7.35759e-45
3.10832e-44
5.27248e-44
2.39344e-44
8.37389e-45
2.25558e-45
4.87408e-46
9.30125e-47
1.60786e-47
2.17136e-48
2.32778e-49
1.88698e-50
1.26127e-51
7.40345e-53
2.71955e-53
)
;

boundaryField
{
    leftWall
    {
        type            zeroGradient;
    }
    rightWall
    {
        type            zeroGradient;
    }
    lowerWall
    {
        type            zeroGradient;
    }
    atmosphere
    {
        type            inletOutlet;
        inletValue      uniform 0;
        value           nonuniform List<scalar> 
46
(
0
0
0
0
0
0
0
0
0
0
0
0
0
0
0
0
0
0
0
0
0
0
0
0
0
0
0
0
0
6.23411e-47
1.25698e-45
7.35759e-45
3.10832e-44
5.27248e-44
2.39344e-44
8.37389e-45
2.25558e-45
4.87408e-46
9.30125e-47
1.60786e-47
2.17136e-48
2.32778e-49
1.88698e-50
1.26127e-51
7.40345e-53
2.71955e-53
)
;
    }
    defaultFaces
    {
        type            empty;
    }
}


// ************************************************************************* //
