/*--------------------------------*- C++ -*----------------------------------*\
| =========                 |                                                 |
| \\      /  F ield         | OpenFOAM: The Open Source CFD Toolbox           |
|  \\    /   O peration     | Version:  2206                                  |
|   \\  /    A nd           | Website:  www.openfoam.com                      |
|    \\/     M anipulation  |                                                 |
\*---------------------------------------------------------------------------*/
FoamFile
{
    version     2.0;
    format      ascii;
    arch        "LSB;label=32;scalar=64";
    class       surfaceScalarField;
    location    "0.175";
    object      alphaPhi0.water;
}
// * * * * * * * * * * * * * * * * * * * * * * * * * * * * * * * * * * * * * //

dimensions      [0 3 -1 0 0 0 0];

oriented        oriented;

internalField   nonuniform List<scalar> 
4432
(
1.19653e-06
-1.19653e-06
2.89274e-06
-1.6962e-06
4.50507e-06
-1.61232e-06
6.00416e-06
-1.49909e-06
7.4373e-06
-1.43314e-06
8.81923e-06
-1.38192e-06
1.01414e-05
-1.32221e-06
1.13876e-05
-1.24611e-06
1.2538e-05
-1.15041e-06
1.35697e-05
-1.03178e-06
1.44552e-05
-8.85433e-07
1.5159e-05
-7.03817e-07
1.56325e-05
-4.73494e-07
1.58034e-05
-1.7094e-07
1.55724e-05
2.31008e-07
1.48278e-05
7.44608e-07
1.35324e-05
1.29545e-06
1.17111e-05
1.8212e-06
9.46344e-06
2.2477e-06
6.9741e-06
2.48933e-06
4.45639e-06
2.51772e-06
2.10996e-06
2.34643e-06
2.10996e-06
1.20541e-06
-2.40193e-06
2.91612e-06
-3.4069e-06
4.54811e-06
-3.24432e-06
6.06642e-06
-3.01739e-06
7.51763e-06
-2.88435e-06
8.91845e-06
-2.78274e-06
1.02617e-05
-2.66548e-06
1.15317e-05
-2.51611e-06
1.27095e-05
-2.32823e-06
1.37733e-05
-2.0955e-06
1.46971e-05
-1.80933e-06
1.54523e-05
-1.45896e-06
1.60118e-05
-1.03307e-06
1.63665e-05
-5.25635e-07
1.64987e-05
9.88477e-08
1.64215e-05
8.21785e-07
1.60099e-05
1.70704e-06
1.51023e-05
2.72886e-06
1.35271e-05
3.82282e-06
1.11505e-05
4.86602e-06
7.96989e-06
5.69832e-06
4.1454e-06
6.17092e-06
6.25538e-06
1.20743e-06
-3.60936e-06
2.93592e-06
-5.1354e-06
4.59039e-06
-4.8988e-06
6.12984e-06
-4.55685e-06
7.6016e-06
-4.3561e-06
9.02519e-06
-4.20634e-06
1.03956e-05
-4.03585e-06
1.16982e-05
-3.81879e-06
1.29155e-05
-3.54554e-06
1.40271e-05
-3.20706e-06
1.50091e-05
-2.79135e-06
1.58336e-05
-2.28351e-06
1.64669e-05
-1.66636e-06
1.68624e-05
-9.21104e-07
1.6989e-05
-2.77357e-08
1.67913e-05
1.01952e-06
1.62497e-05
2.24861e-06
1.53077e-05
3.67082e-06
1.385e-05
5.28057e-06
1.16938e-05
7.02218e-06
8.6517e-06
8.74043e-06
4.66195e-06
1.01607e-05
1.09173e-05
1.20972e-06
-4.81908e-06
2.96602e-06
-6.89172e-06
4.6543e-06
-6.58709e-06
6.22468e-06
-6.12724e-06
7.72648e-06
-5.8579e-06
9.18345e-06
-5.66332e-06
1.05934e-05
-5.44584e-06
1.19438e-05
-5.16916e-06
1.32185e-05
-4.82027e-06
1.43992e-05
-4.38769e-06
1.54638e-05
-3.856e-06
1.63859e-05
-3.2056e-06
1.71326e-05
-2.41301e-06
1.76632e-05
-1.45177e-06
1.79266e-05
-2.91104e-07
1.78505e-05
1.09568e-06
1.73602e-05
2.73883e-06
1.63744e-05
4.65668e-06
1.47986e-05
6.85634e-06
1.25024e-05
9.31839e-06
9.30526e-06
1.19376e-05
5.05461e-06
1.44114e-05
1.59719e-05
1.21253e-06
-6.03162e-06
3.00522e-06
-8.68441e-06
4.73762e-06
-8.31949e-06
6.34798e-06
-7.7376e-06
7.88841e-06
-7.39833e-06
9.3883e-06
-7.16321e-06
1.08492e-05
-6.90676e-06
1.22609e-05
-6.5808e-06
1.36093e-05
-6.16871e-06
1.48785e-05
-5.6569e-06
1.60494e-05
-5.02693e-06
1.70985e-05
-4.25469e-06
1.79961e-05
-3.31053e-06
1.87034e-05
-2.15906e-06
1.91702e-05
-7.57951e-07
1.93262e-05
9.39728e-07
1.90754e-05
2.98958e-06
1.82903e-05
5.44175e-06
1.68117e-05
8.335e-06
1.44543e-05
1.16758e-05
1.10035e-05
1.53883e-05
6.19821e-06
1.92167e-05
2.21701e-05
1.2176e-06
-7.24923e-06
3.05326e-06
-1.05201e-05
4.83751e-06
-1.01037e-05
6.49542e-06
-9.3955e-06
8.08229e-06
-8.98519e-06
9.63394e-06
-8.71486e-06
1.11563e-05
-8.42911e-06
1.26418e-05
-8.06634e-06
1.40793e-05
-7.60614e-06
1.54556e-05
-7.03323e-06
1.67554e-05
-6.32674e-06
1.79594e-05
-5.45869e-06
1.90427e-05
-4.39374e-06
1.99718e-05
-3.08819e-06
2.07016e-05
-1.48779e-06
2.11685e-05
4.72895e-07
2.12778e-05
2.88025e-06
2.0882e-05
5.83752e-06
1.97565e-05
9.46054e-06
1.7574e-05
1.38583e-05
1.38713e-05
1.9091e-05
8.04153e-06
2.50465e-05
3.02117e-05
1.22691e-06
-8.47614e-06
3.10918e-06
-1.24023e-05
4.94829e-06
-1.19428e-05
6.65802e-06
-1.11052e-05
8.297e-06
-1.06241e-05
9.90728e-06
-1.03251e-05
1.14994e-05
-1.00212e-05
1.30691e-05
-9.63606e-06
1.46084e-05
-9.1454e-06
1.61081e-05
-8.53297e-06
1.75578e-05
-7.77643e-06
1.89442e-05
-6.84504e-06
2.02494e-05
-5.69894e-06
2.14487e-05
-4.28754e-06
2.25074e-05
-2.54642e-06
2.33718e-05
-3.91491e-07
2.39683e-05
2.2837e-06
2.4158e-05
5.64785e-06
2.36992e-05
9.91928e-06
2.22361e-05
1.53214e-05
1.90275e-05
2.22996e-05
1.33006e-05
3.07733e-05
4.35123e-05
1.24269e-06
-9.71882e-06
3.16983e-06
-1.43295e-05
5.06357e-06
-1.38366e-05
6.8269e-06
-1.28685e-05
8.52083e-06
-1.23181e-05
1.01935e-05
-1.19977e-05
1.18599e-05
-1.16876e-05
1.35194e-05
-1.12956e-05
1.51677e-05
-1.07938e-05
1.68006e-05
-1.01658e-05
1.84136e-05
-9.38946e-06
2.00016e-05
-8.43305e-06
2.15575e-05
-7.25483e-06
2.30703e-05
-5.80029e-06
2.45215e-05
-3.99763e-06
2.58807e-05
-1.75071e-06
2.71018e-05
1.06263e-06
2.80868e-05
4.66285e-06
2.85925e-05
9.41356e-06
2.81663e-05
1.57476e-05
2.54198e-05
2.50461e-05
1.83283e-05
3.78648e-05
6.18406e-05
-1.71524e-10
1.83635e-11
-7.92328e-10
4.67184e-10
-8.60751e-09
6.81738e-09
-4.87823e-08
3.02268e-08
-2.46267e-07
8.71342e-08
-6.28319e-07
-4.17428e-08
-1.33473e-06
-8.73244e-08
5.68879e-06
-8.228e-06
1.39691e-05
-1.32803e-05
9.41667e-06
-1.39178e-06
4.06525e-06
1.28996e-06
9.19069e-07
1.8029e-06
1.33556e-07
6.48952e-07
1.63285e-08
9.22436e-08
1.81407e-09
1.1021e-08
1.17821e-10
1.35372e-09
6.48628e-12
9.13134e-11
1.48669e-12
3.60302e-12
5.03093e-14
-2.73919e-10
1.39304e-10
-1.42315e-09
1.3876e-09
-3.48015e-09
7.44508e-09
-2.8512e-08
4.0273e-08
-4.80851e-08
3.57503e-08
1.42895e-07
-3.36112e-07
8.63632e-06
-8.80306e-06
3.36488e-05
-5.01925e-05
4.07003e-05
-5.23504e-05
3.14082e-05
-2.0907e-05
8.6127e-06
-3.14149e-06
3.52943e-06
3.86318e-06
9.41524e-07
2.65609e-06
1.52091e-07
7.30699e-07
1.54786e-08
1.18191e-07
9.55962e-10
1.17267e-08
4.49735e-11
7.34919e-10
2.27887e-12
3.76146e-11
8.92798e-13
-6.82021e-11
1.49913e-10
7.50173e-10
4.16566e-10
-3.86366e-10
6.3326e-09
4.80242e-08
2.05828e-08
1.30628e-06
-1.21765e-06
1.26623e-05
-1.1909e-05
6.29902e-05
-8.07692e-05
6.99182e-05
-9.45711e-05
5.19088e-05
-6.47648e-05
3.22259e-05
-3.20109e-05
1.12467e-06
-8.18166e-06
8.38625e-07
1.26872e-06
4.4512e-07
1.9668e-06
7.55388e-08
8.1357e-07
8.41228e-09
1.38085e-07
5.3563e-10
1.47547e-08
3.54264e-11
9.34873e-10
7.35466e-12
5.06914e-11
1.579e-12
-6.87031e-11
2.04892e-10
-9.02117e-11
3.96682e-10
2.85574e-09
3.17186e-09
1.1873e-06
-1.16473e-06
1.20159e-05
-1.23077e-05
7.30643e-05
-8.67583e-05
9.32675e-05
-0.000133231
7.43317e-05
-0.000103903
3.00821e-05
-4.3331e-05
5.07007e-06
-9.54438e-06
2.94719e-06
-2.98162e-06
2.58477e-06
3.6061e-08
5.04987e-07
6.37031e-07
-7.68383e-09
4.01367e-07
-6.22698e-09
6.15846e-08
-2.79817e-10
5.68659e-09
-9.87919e-12
4.72577e-10
3.76433e-12
2.81064e-11
9.61943e-13
-4.75757e-11
2.47091e-10
5.61635e-11
2.79233e-10
1.00545e-06
-1.00202e-06
1.16347e-05
-1.20527e-05
7.83052e-05
-9.03859e-05
0.000115544
-0.000149841
0.000105318
-0.000144639
5.55898e-05
-9.63947e-05
7.98412e-06
-1.35791e-05
1.69232e-06
-3.53128e-06
8.18303e-07
-1.00691e-06
8.30688e-07
-5.54486e-08
2.94492e-07
1.79084e-07
3.991e-08
1.36642e-08
-2.32255e-09
1.48277e-08
-1.78274e-10
1.92372e-09
-8.99186e-12
2.04491e-10
1.44658e-12
1.32822e-11
5.25275e-13
2.02952e-11
2.23159e-10
1.02936e-06
-1.02906e-06
1.42093e-05
-1.70833e-05
8.78749e-05
-9.69322e-05
0.000131367
-0.000149669
0.000132757
-0.00016572
9.3762e-05
-0.000148379
1.2488e-05
-2.98486e-05
3.03089e-06
-5.10636e-06
4.64077e-07
-1.0977e-06
1.55833e-07
-2.68333e-07
1.42136e-07
-3.45387e-08
8.10601e-08
1.24703e-07
9.86756e-09
2.45505e-08
-4.87448e-10
2.89948e-09
-8.75027e-11
7.08881e-10
-5.56924e-12
7.84292e-11
4.32465e-13
5.39722e-12
2.24751e-13
1.52723e-10
6.68004e-11
3.58922e-05
-3.99386e-05
0.000103827
-0.000104821
0.00014591
-0.000142175
0.000151338
-0.000161301
0.000130373
-0.000153365
2.68146e-05
-7.07336e-05
4.59225e-06
-1.15115e-05
9.87344e-07
-1.88322e-06
1.08677e-07
-2.7763e-07
2.28447e-08
-3.68457e-08
8.60542e-09
-1.53859e-08
1.19623e-08
3.33521e-08
2.89234e-09
1.73858e-08
-1.08596e-10
5.10579e-10
-3.55445e-11
2.46319e-10
-2.62034e-12
2.77095e-11
9.13577e-14
1.95253e-12
8.59295e-14
7.57531e-05
-7.87732e-05
0.000135129
-0.000105722
0.000159668
-0.000130018
0.000164445
-0.000148989
0.000156577
-0.000156592
8.00345e-05
-0.000138969
8.74364e-06
-2.85465e-05
1.77245e-06
-5.54469e-06
2.74949e-07
-5.89998e-07
2.23088e-08
-5.2031e-08
1.60916e-09
-1.16144e-09
-6.04613e-09
-4.36667e-09
-9.07604e-10
1.34704e-08
9.02619e-10
6.87842e-09
-4.7917e-11
3.42769e-10
-1.31671e-11
7.72522e-11
-1.07024e-12
8.9918e-12
-7.60018e-15
6.58105e-13
3.03954e-14
2.69636e-06
-1.24152e-05
6.98495e-06
-1.8618e-05
1.11808e-05
-1.80324e-05
1.50921e-05
-1.67798e-05
1.88763e-05
-1.61022e-05
2.26464e-05
-1.57678e-05
2.64429e-05
-1.54842e-05
3.02752e-05
-1.51278e-05
3.41469e-05
-1.46655e-05
3.80652e-05
-1.40841e-05
4.20422e-05
-1.33665e-05
4.60958e-05
-1.24866e-05
5.02509e-05
-1.14099e-05
5.4543e-05
-1.00924e-05
5.9024e-05
-8.47863e-06
6.37718e-05
-6.49857e-06
6.89046e-05
-4.07013e-06
7.47107e-05
-1.14326e-06
8.15833e-05
2.54094e-06
9.04438e-05
6.8871e-06
0.000103209
1.22811e-05
0.000124609
1.64642e-05
2.76495e-05
0.0001588
2.85025e-06
-1.52654e-05
7.32641e-06
-2.30942e-05
1.17052e-05
-2.24112e-05
1.58159e-05
-2.08905e-05
1.98352e-05
-2.01215e-05
2.3885e-05
-1.98176e-05
2.80127e-05
-1.96119e-05
3.22378e-05
-1.9353e-05
3.65791e-05
-1.90068e-05
4.10625e-05
-1.85676e-05
4.57239e-05
-1.80278e-05
5.06108e-05
-1.73735e-05
5.5787e-05
-1.65862e-05
6.13399e-05
-1.56452e-05
6.73914e-05
-1.45301e-05
7.41158e-05
-1.3223e-05
8.17597e-05
-1.1714e-05
9.06307e-05
-1.00142e-05
0.000101292
-8.12e-06
0.000114339
-6.16048e-06
0.000130486
-3.86518e-06
0.000149564
-2.61463e-06
2.06057e-06
0.000175153
3.04825e-06
-1.83136e-05
7.64949e-06
-2.76954e-05
1.21016e-05
-2.68633e-05
1.63234e-05
-2.51124e-05
2.05109e-05
-2.4309e-05
2.47736e-05
-2.40804e-05
2.91515e-05
-2.39898e-05
3.36668e-05
-2.38684e-05
3.83464e-05
-2.36863e-05
4.32258e-05
-2.3447e-05
4.83497e-05
-2.31518e-05
5.37733e-05
-2.27971e-05
5.95643e-05
-2.23771e-05
6.58058e-05
-2.18868e-05
7.26001e-05
-2.13243e-05
8.00698e-05
-2.06928e-05
8.83589e-05
-2.00031e-05
9.76247e-05
-1.928e-05
0.000108061
-1.85565e-05
0.000119821
-1.79197e-05
0.000133351
-1.73956e-05
0.000148194
-1.74574e-05
-1.74274e-05
0.000167682
3.28046e-06
-2.15941e-05
7.90959e-06
-3.23246e-05
1.23109e-05
-3.12646e-05
1.65442e-05
-2.93456e-05
2.08143e-05
-2.85791e-05
2.51986e-05
-2.84647e-05
2.97184e-05
-2.85095e-05
3.43935e-05
-2.85436e-05
3.92545e-05
-2.85473e-05
4.434e-05
-2.85324e-05
4.96952e-05
-2.8507e-05
5.53724e-05
-2.84742e-05
6.14314e-05
-2.84361e-05
6.79411e-05
-2.83965e-05
7.49794e-05
-2.83625e-05
8.26327e-05
-2.83461e-05
9.09949e-05
-2.83653e-05
0.000100162
-2.84475e-05
0.000110234
-2.86279e-05
0.000121278
-2.89637e-05
0.00013337
-2.94883e-05
0.000146292
-3.03785e-05
-3.1359e-05
0.000160223
3.51777e-06
-2.51119e-05
8.05752e-06
-3.68643e-05
1.22873e-05
-3.54944e-05
1.64365e-05
-3.34948e-05
2.0696e-05
-3.28386e-05
2.50947e-05
-3.28633e-05
2.96315e-05
-3.30463e-05
3.43235e-05
-3.32356e-05
3.92026e-05
-3.34264e-05
4.43069e-05
-3.36368e-05
4.96781e-05
-3.38783e-05
5.53616e-05
-3.41578e-05
6.14072e-05
-3.44818e-05
6.78695e-05
-3.48588e-05
7.48067e-05
-3.52997e-05
8.22794e-05
-3.58188e-05
9.03473e-05
-3.64331e-05
9.90646e-05
-3.71648e-05
0.000108474
-3.8037e-05
0.000118591
-3.90811e-05
0.000129418
-4.0315e-05
0.000140848
-4.18085e-05
-4.34204e-05
0.000152909
3.72304e-06
-2.88349e-05
8.05095e-06
-4.11922e-05
1.20107e-05
-3.94542e-05
1.59968e-05
-3.74809e-05
2.01547e-05
-3.69965e-05
2.44578e-05
-3.71663e-05
2.88871e-05
-3.74756e-05
3.34591e-05
-3.78076e-05
3.82057e-05
-3.8173e-05
4.31623e-05
-3.85933e-05
4.83653e-05
-3.90812e-05
5.38533e-05
-3.96458e-05
5.96678e-05
-4.02963e-05
6.58529e-05
-4.1044e-05
7.24552e-05
-4.19019e-05
7.9522e-05
-4.28857e-05
8.71001e-05
-4.40111e-05
9.52333e-05
-4.5298e-05
0.000103955
-4.67589e-05
0.000113292
-4.84181e-05
0.000123252
-5.02742e-05
0.000133787
-5.23432e-05
-5.45557e-05
0.000144923
3.8601e-06
-3.2695e-05
7.86466e-06
-4.51968e-05
1.14889e-05
-4.30785e-05
1.52523e-05
-4.12442e-05
1.92235e-05
-4.09678e-05
2.33261e-05
-4.12689e-05
2.75337e-05
-4.16831e-05
3.18644e-05
-4.21383e-05
3.63487e-05
-4.26572e-05
4.10167e-05
-4.32613e-05
4.58987e-05
-4.39632e-05
5.10269e-05
-4.47739e-05
5.64361e-05
-4.57054e-05
6.21643e-05
-4.6772e-05
6.8252e-05
-4.79893e-05
7.47415e-05
-4.93749e-05
8.16769e-05
-5.09461e-05
8.91037e-05
-5.27243e-05
9.70632e-05
-5.47176e-05
0.000105607
-5.69605e-05
0.000114758
-5.94225e-05
0.00012454
-6.21203e-05
-6.5079e-05
0.00013507
3.90848e-06
-3.66035e-05
7.50222e-06
-4.87902e-05
1.07596e-05
-4.63356e-05
1.42569e-05
-4.47413e-05
1.79666e-05
-4.46773e-05
2.17789e-05
-4.50809e-05
2.567e-05
-4.55739e-05
2.96602e-05
-4.61283e-05
3.37755e-05
-4.67722e-05
3.80393e-05
-4.75246e-05
4.24747e-05
-4.83981e-05
4.71066e-05
-4.9405e-05
5.19628e-05
-5.05606e-05
5.70743e-05
-5.18822e-05
6.24769e-05
-5.33901e-05
6.82099e-05
-5.51055e-05
7.43173e-05
-5.70503e-05
8.08482e-05
-5.92505e-05
8.78544e-05
-6.17177e-05
9.54023e-05
-6.44968e-05
0.000103512
-6.75113e-05
0.000112202
-7.07768e-05
-7.43785e-05
0.000121552
3.87903e-06
-4.04818e-05
6.99879e-06
-5.19078e-05
9.88073e-06
-4.92157e-05
1.30791e-05
-4.79379e-05
1.6465e-05
-4.80615e-05
1.9917e-05
-4.85311e-05
2.34213e-05
-4.90762e-05
2.69967e-05
-4.97015e-05
3.06609e-05
-5.04337e-05
3.44273e-05
-5.12878e-05
3.8309e-05
-5.22755e-05
4.23207e-05
-5.34111e-05
4.64779e-05
-5.47105e-05
5.07973e-05
-5.61918e-05
5.52998e-05
-5.78796e-05
6.00075e-05
-5.97961e-05
6.49437e-05
-6.19643e-05
7.01356e-05
-6.44119e-05
7.56354e-05
-6.71671e-05
8.14675e-05
-7.02547e-05
8.76224e-05
-7.35368e-05
9.39953e-05
-7.69453e-05
-8.14703e-05
0.000101394
3.80133e-06
-4.42768e-05
6.38531e-06
-5.44768e-05
8.88791e-06
-5.17057e-05
1.17577e-05
-5.07957e-05
1.47677e-05
-5.10592e-05
1.78053e-05
-5.15554e-05
2.08657e-05
-5.21223e-05
2.39623e-05
-5.27821e-05
2.71016e-05
-5.35544e-05
3.02829e-05
-5.44463e-05
3.35034e-05
-5.54668e-05
3.67622e-05
-5.66315e-05
4.00527e-05
-5.79509e-05
4.33639e-05
-5.94385e-05
4.66875e-05
-6.11189e-05
4.99976e-05
-6.29952e-05
5.32475e-05
-6.50734e-05
5.63966e-05
-6.7362e-05
5.95248e-05
-6.99934e-05
6.27478e-05
-7.29969e-05
6.5124e-05
-7.51356e-05
6.58165e-05
-7.1858e-05
-6.79415e-05
6.30015e-05
3.66105e-06
-4.78874e-05
5.62253e-06
-5.63446e-05
7.72243e-06
-5.37239e-05
1.02161e-05
-5.32094e-05
1.27842e-05
-5.35441e-05
1.53383e-05
-5.40213e-05
1.78714e-05
-5.45611e-05
2.03843e-05
-5.519e-05
2.287e-05
-5.59179e-05
2.53095e-05
-5.67375e-05
2.76787e-05
-5.76469e-05
2.99632e-05
-5.86705e-05
3.21587e-05
-5.98299e-05
3.42771e-05
-6.11541e-05
3.62906e-05
-6.26217e-05
3.78494e-05
-6.34682e-05
3.89429e-05
-6.19236e-05
3.86499e-05
-5.70364e-05
3.6221e-05
-4.87306e-05
3.09345e-05
-3.79945e-05
2.24415e-05
-2.44126e-05
1.44002e-05
-1.05097e-05
-1.74936e-06
1.21767e-05
3.49578e-06
-5.10145e-05
4.54862e-06
-5.60655e-05
6.13542e-06
-5.43166e-05
8.12601e-06
-5.40384e-05
1.0111e-05
-5.38871e-05
1.20355e-05
-5.35395e-05
1.389e-05
-5.29453e-05
1.55934e-05
-5.17237e-05
1.71301e-05
-4.99288e-05
1.84201e-05
-4.74217e-05
1.9324e-05
-4.41524e-05
1.97292e-05
-4.01661e-05
1.9547e-05
-3.56224e-05
1.85772e-05
-3.05036e-05
1.67403e-05
-2.50954e-05
1.39615e-05
-1.93707e-05
1.0465e-05
-1.2425e-05
7.20458e-06
-3.10823e-06
4.40666e-06
-2.65597e-07
2.25469e-06
-2.62937e-08
2.97445e-06
-3.00505e-09
1.21798e-06
-3.75905e-10
-3.87053e-10
8.25246e-08
2.55876e-06
-1.86406e-05
2.03222e-06
-1.58059e-05
2.74649e-06
-1.60743e-05
3.5465e-06
-1.54729e-05
4.15175e-06
-1.41355e-05
4.56058e-06
-1.2299e-05
4.77548e-06
-9.8877e-06
4.78189e-06
-6.18967e-06
4.56304e-06
-2.92294e-06
4.15312e-06
-3.57702e-07
3.63428e-06
-1.10112e-08
2.97989e-06
-4.01856e-10
2.30833e-06
-1.66972e-11
1.65037e-06
-2.99458e-13
1.02912e-06
6.52752e-14
6.70661e-07
5.27834e-14
9.61855e-07
2.78331e-14
2.95288e-07
-1.92615e-14
2.96917e-08
-3.90716e-13
3.40162e-09
-3.05764e-12
4.17379e-10
-2.07007e-11
9.17397e-11
-5.62461e-11
-2.50191e-10
1.27132e-10
2.45929e-07
2.4113e-23
5.65686e-08
1.89574e-23
9.04058e-08
3.75641e-22
1.05787e-07
1.71062e-20
1.14136e-07
2.22245e-18
2.23814e-07
2.19177e-17
1.98671e-07
1.42384e-16
1.49405e-07
1.02703e-15
8.48843e-08
9.08878e-15
1.14329e-08
6.61094e-14
4.21334e-10
3.35719e-13
1.84977e-11
9.80427e-13
9.31543e-13
8.6902e-13
2.10195e-14
6.11066e-13
-2.96293e-14
3.93557e-13
-2.83966e-14
2.67108e-13
-1.7055e-14
1.24416e-13
2.88688e-15
-1.80097e-14
6.77327e-14
-4.01459e-13
6.38344e-13
-3.47317e-12
5.37227e-12
-2.48606e-11
6.07964e-11
-1.11543e-10
-5.3146e-10
3.36084e-10
4.19904e-25
4.60038e-23
-5.36422e-25
5.01466e-23
-1.99885e-23
1.04174e-21
-1.17038e-21
4.52248e-20
-6.08961e-20
1.71329e-18
-2.34856e-18
4.22678e-17
-2.03672e-17
3.02932e-16
-1.79837e-16
2.26787e-15
-1.95042e-15
1.96962e-14
-1.79161e-14
1.37756e-13
-1.05188e-13
6.59412e-13
-3.58995e-13
1.66438e-12
-3.69737e-13
1.33157e-12
-2.88131e-13
8.58041e-13
-2.09017e-13
5.18154e-13
-1.53028e-13
3.00769e-13
-7.7001e-14
8.49211e-14
4.1608e-14
-1.36256e-13
8.18385e-13
-1.19521e-12
6.61986e-12
-9.35196e-12
4.20485e-11
-6.04942e-11
2.56622e-10
-3.31449e-10
-1.67444e-09
1.35952e-09
1.10237e-24
1.84599e-24
-1.38435e-24
7.00917e-23
-5.65743e-23
1.96561e-21
-3.31532e-21
7.58805e-20
-1.61371e-19
2.40255e-18
-4.90589e-18
5.22332e-17
-4.13901e-17
4.24415e-16
-3.72185e-16
3.47794e-15
-3.78992e-15
2.84999e-14
-3.02559e-14
1.76235e-13
-1.58334e-13
7.47458e-13
-4.48706e-13
1.70356e-12
-3.87032e-13
1.11307e-12
-2.61335e-13
6.32873e-13
-1.64892e-13
3.43331e-13
-9.82642e-14
1.50602e-13
-2.81544e-14
-3.38213e-14
1.98771e-13
-4.46593e-13
2.3601e-12
-4.17851e-12
1.92179e-11
-3.23496e-11
1.36505e-10
-2.18449e-10
1.16246e-09
-1.46918e-09
-1.01895e-08
5.77111e-09
6.83582e-25
1.36644e-24
-6.30158e-25
9.2164e-23
-3.28275e-23
4.05534e-21
-1.85761e-21
1.32168e-19
-7.45635e-20
3.17921e-18
-1.92903e-18
5.22365e-17
-1.72736e-17
5.18939e-16
-1.5194e-16
4.54075e-15
-1.3637e-15
3.24936e-14
-8.71836e-15
1.66985e-13
-3.6539e-14
5.57761e-13
-7.65001e-14
9.96105e-13
-4.0903e-14
5.36819e-13
-1.61577e-14
2.77553e-13
-3.98377e-15
1.26386e-13
-5.36025e-17
9.97892e-15
1.07322e-15
-5.12161e-14
1.78556e-15
-5.82949e-13
4.76564e-13
-5.46589e-12
6.08007e-12
-4.62099e-11
2.80592e-11
-3.26611e-10
8.18613e-11
-2.16175e-09
-1.72388e-08
-8.75332e-10
1.39299e-24
9.90194e-25
1.04972e-22
9.78596e-23
5.01716e-21
4.41812e-21
1.50542e-19
1.24999e-19
2.97859e-18
2.50152e-18
3.47436e-17
3.67733e-17
3.54204e-16
4.02939e-16
2.96628e-15
3.27094e-15
1.78273e-14
1.91705e-14
6.9226e-14
7.72495e-14
1.41972e-13
1.96415e-13
8.8036e-14
2.65859e-13
5.209e-14
1.35857e-13
2.71344e-14
6.41625e-14
2.42925e-15
1.84437e-14
-3.32699e-14
-1.88433e-14
3.69322e-14
-1.21418e-13
5.54097e-13
-8.94273e-13
3.85017e-12
-6.80994e-12
1.38637e-11
-4.47671e-11
5.69278e-12
-2.67789e-10
-4.58348e-10
-1.74494e-09
-6.98274e-09
-2.24121e-08
2.38649e-24
1.86532e-28
2.21976e-22
8.16406e-27
9.42435e-21
1.49917e-25
2.48318e-19
1.66946e-24
4.52876e-18
1.2162e-23
5.93243e-17
5.70585e-23
5.61891e-16
1.41414e-22
3.78522e-15
-3.6745e-22
1.73796e-14
-1.04928e-20
5.00068e-14
-1.31889e-19
7.6364e-14
-1.19203e-18
4.38948e-14
-5.63277e-18
2.32557e-14
-2.74417e-17
7.47381e-15
-2.44542e-16
-8.45147e-15
-7.89115e-16
-2.04618e-14
-6.83294e-15
-1.08748e-13
-3.35616e-14
-7.81787e-13
-2.13464e-13
-5.95679e-12
-1.39283e-12
-4.11942e-11
-8.18718e-12
-2.61099e-10
-4.14771e-11
-1.74144e-09
-2.37752e-10
-8.65692e-10
-7.75659e-09
2.51979e-28
1.88175e-28
9.76577e-27
8.41964e-27
1.6393e-25
1.60843e-25
1.60088e-24
1.87269e-24
9.43643e-24
1.45737e-23
2.82964e-23
7.66074e-23
-1.53838e-23
2.43987e-22
-5.1488e-22
1.32046e-22
-7.50473e-21
-3.50298e-21
-7.8117e-20
-6.12767e-20
-4.23235e-19
-8.46909e-19
-2.36038e-18
-3.69563e-18
-2.50629e-17
-4.739e-18
-2.61829e-16
-7.77585e-18
-9.81715e-16
-6.92281e-17
-7.23492e-15
-5.00887e-16
-3.75288e-14
-2.68639e-15
-2.2896e-13
-1.91716e-14
-1.47664e-12
-1.28302e-13
-8.86529e-12
-6.90595e-13
-4.68666e-11
-3.01856e-12
-2.70374e-10
-1.2546e-11
-3.62327e-11
-1.09417e-09
3.06028e-28
1.23855e-28
1.23683e-26
5.66967e-27
2.20013e-25
1.13414e-25
2.31135e-24
1.39962e-24
1.53539e-23
1.18716e-23
5.93799e-23
7.23567e-23
3.80239e-23
3.2009e-22
-1.17216e-21
1.00533e-21
-6.75623e-21
2.08109e-21
-9.25972e-20
2.22969e-21
-1.48095e-18
-1.31353e-21
-2.56306e-18
-7.72725e-21
-1.67918e-18
-7.0143e-20
-8.62619e-18
-7.80293e-19
-7.04515e-17
-6.96865e-18
-5.18695e-16
-4.95009e-17
-2.98725e-15
-2.40295e-16
-2.16962e-14
-1.53509e-15
-1.3836e-13
-1.06868e-14
-7.5725e-13
-6.72734e-14
-3.43143e-12
-3.2768e-13
-1.44386e-11
-1.48714e-12
-5.62123e-12
-4.48698e-11
2.37162e-28
3.9682e-29
9.95074e-27
1.83555e-27
1.88191e-25
3.76042e-26
2.16058e-24
4.78454e-25
1.66931e-23
4.21751e-24
8.98832e-23
2.70411e-23
3.34408e-22
1.28317e-22
8.04723e-22
4.47543e-22
9.88798e-22
1.1056e-21
-2.48135e-22
1.7559e-21
-2.87903e-21
1.31736e-21
-6.89364e-21
-2.50011e-22
-5.64642e-20
-2.8824e-21
-8.16064e-19
-2.19692e-20
-7.70054e-18
-1.35999e-19
-5.65696e-17
-8.13682e-19
-3.10299e-16
-3.95902e-18
-1.82288e-15
-1.82914e-17
-1.2368e-14
-1.1139e-16
-7.86983e-14
-8.93894e-16
-4.01088e-13
-5.7656e-15
-1.85469e-12
-3.04634e-14
-1.36148e-13
-7.3261e-12
8.62835e-29
1.13693e-33
3.68365e-27
1.81907e-32
7.15836e-26
7.93531e-32
8.5301e-25
-9.06009e-32
6.92559e-24
-2.84423e-30
3.99855e-23
-7.11299e-29
1.65188e-22
-1.47504e-27
4.74305e-22
-2.60575e-26
8.63651e-22
-3.99762e-25
7.35414e-22
-5.19795e-24
-2.27988e-22
-3.94157e-23
-3.1893e-22
-1.88483e-22
-3.06703e-21
-1.54336e-21
-2.28284e-20
-1.22299e-20
-1.54997e-19
-8.164e-20
-1.11064e-18
-4.56278e-19
-4.95559e-18
-1.71037e-18
-2.25986e-17
-4.10095e-18
-1.38677e-16
-8.05695e-18
-1.03668e-15
-1.32357e-17
-6.79941e-15
-2.87013e-17
-3.73564e-14
-5.35754e-17
-8.86741e-17
-1.73868e-13
9.34548e-34
-1.54163e-38
8.44171e-33
-2.08053e-36
-1.4686e-32
-1.30382e-34
-9.58735e-32
-9.41339e-33
-2.64816e-30
-2.91942e-31
-6.65466e-29
-7.23142e-30
-1.39282e-27
-1.48773e-28
-2.48357e-26
-2.61457e-27
-4.12497e-25
-2.77239e-26
-5.52052e-24
-2.84073e-25
-3.01794e-23
-3.38913e-24
-1.94465e-22
-3.54765e-23
-1.84786e-21
-3.41302e-22
-1.86251e-20
-3.11989e-21
-1.52989e-19
-2.76026e-20
-8.24159e-19
-1.9662e-19
-3.06453e-18
-1.02605e-18
-8.43488e-18
-3.47888e-18
-1.62376e-17
-9.52869e-18
-2.09517e-17
-1.8911e-17
-3.21711e-17
-2.53073e-17
-5.97297e-17
-2.62757e-17
-2.33993e-17
-1.18219e-16
-1.4553e-38
-8.63374e-40
-1.97769e-36
-1.17402e-37
-1.24875e-34
-7.48481e-36
-9.2673e-33
-3.05367e-34
-2.93069e-31
-9.61072e-33
-7.30599e-30
-2.43812e-31
-1.51483e-28
-5.19189e-30
-2.68317e-27
-9.47609e-29
-2.95445e-26
-1.06908e-27
-3.07727e-25
-1.15628e-26
-3.61852e-24
-1.47263e-25
-3.82727e-23
-1.69388e-24
-3.71125e-22
-1.77558e-23
-3.49932e-21
-1.70761e-22
-3.4721e-20
-1.52033e-21
-2.82833e-19
-1.33519e-20
-1.82524e-18
-1.07075e-19
-8.21894e-18
-7.53137e-19
-2.38638e-17
-4.14369e-18
-4.2329e-17
-1.31231e-17
-5.37618e-17
-2.16504e-17
-5.68235e-17
-2.37475e-17
-2.42459e-17
-5.43527e-17
-8.61615e-40
-1.52013e-42
-1.18024e-37
-2.11721e-40
-7.5873e-36
-1.39239e-38
-3.12304e-34
-5.88829e-37
-9.90216e-33
-1.91324e-35
-2.5314e-31
-5.09582e-34
-5.43202e-30
-1.14276e-32
-9.99346e-29
-2.20342e-31
-1.16547e-27
-2.70287e-30
-1.26891e-26
-3.14082e-29
-1.59624e-25
-4.16007e-28
-1.84882e-24
-5.0484e-27
-1.95574e-23
-5.60077e-26
-1.89873e-22
-5.72146e-25
-1.71359e-21
-5.42844e-24
-1.6083e-20
-5.05252e-23
-1.46835e-19
-4.48905e-22
-1.28854e-18
-3.34828e-21
-8.15858e-18
-2.08788e-20
-2.60916e-17
-9.66643e-20
-4.485e-17
-2.9848e-19
-5.52684e-17
-6.2224e-19
-9.28171e-19
-5.93013e-17
-1.54885e-42
2.87282e-44
-2.13937e-40
6.67047e-43
-1.41403e-38
2.01923e-42
-6.02593e-37
-3.13048e-40
-1.97929e-35
-1.16188e-38
-5.30495e-34
-3.4876e-37
-1.19749e-32
-8.71593e-36
-2.32555e-31
-1.86661e-34
-2.93636e-30
-2.62898e-33
-3.45351e-29
-3.50239e-32
-4.50171e-28
-4.88953e-31
-5.4929e-27
-6.3343e-30
-6.14354e-26
-7.52462e-29
-6.32917e-25
-8.25212e-28
-6.07792e-24
-8.42317e-27
-6.02198e-23
-8.41589e-26
-5.74454e-22
-8.0727e-25
-4.82519e-21
-6.5831e-24
-3.29571e-20
-4.63153e-23
-1.51782e-19
-2.40022e-22
-4.47396e-19
-7.63981e-22
-9.2672e-19
-1.51202e-21
-2.10401e-21
-1.50282e-18
3.96531e-44
2.37243e-50
2.45075e-43
-1.76977e-48
-3.45016e-41
-1.33023e-46
-3.78551e-40
-8.56076e-45
-1.2379e-38
-3.06601e-43
-3.66598e-37
-9.18744e-42
-9.19406e-36
-2.31944e-40
-1.97513e-34
-5.03378e-39
-2.9261e-33
-8.71226e-38
-3.79486e-32
-1.29568e-36
-5.26882e-31
-1.93298e-35
-6.86094e-30
-2.69878e-34
-8.21048e-29
-3.46365e-33
-9.07279e-28
-4.10976e-32
-9.35588e-27
-4.54428e-31
-9.87473e-26
-4.89359e-30
-1.01236e-24
-5.28855e-29
-9.51001e-24
-4.80531e-28
-7.63366e-23
-3.25617e-27
-3.86424e-22
-1.46453e-26
-1.09844e-21
-4.86824e-26
-2.03502e-21
-1.78938e-25
-8.31301e-25
-2.90661e-21
-1.01885e-49
-8.5196e-54
-1.86886e-48
-2.80043e-51
-1.3466e-46
-2.31943e-49
-8.68319e-45
-8.93396e-48
-3.14815e-43
-3.48541e-46
-9.48745e-42
-1.13766e-44
-2.41039e-40
-3.12963e-43
-5.26572e-39
-7.40077e-42
-9.22225e-38
-1.40315e-40
-1.38526e-36
-2.28215e-39
-2.06752e-35
-3.69025e-38
-2.89992e-34
-5.63298e-37
-3.74497e-33
-7.90279e-36
-4.47412e-32
-1.0262e-34
-4.99124e-31
-1.24181e-33
-5.73569e-30
-1.42988e-32
-6.96054e-29
-1.70477e-31
-7.01982e-28
-1.78277e-30
-4.59536e-27
-1.4614e-29
-1.77954e-26
-7.8663e-29
-6.29309e-26
-2.72586e-28
-3.45814e-25
-8.59839e-28
-4.36103e-27
-1.91623e-24
-8.51416e-54
-5.43691e-57
-2.80748e-51
-1.07336e-54
-2.34619e-49
-9.78502e-53
-9.16263e-48
-4.17487e-51
-3.57455e-46
-1.77958e-49
-1.17265e-44
-6.38705e-48
-3.24317e-43
-1.93005e-46
-7.71986e-42
-5.02307e-45
-1.47913e-40
-1.05234e-43
-2.42796e-39
-1.88911e-42
-3.93287e-38
-3.35308e-41
-6.02057e-37
-5.62922e-40
-8.49431e-36
-8.69474e-39
-1.10979e-34
-1.24409e-37
-1.35164e-33
-1.65969e-36
-1.60376e-32
-2.08348e-35
-2.14909e-31
-2.66474e-34
-2.5842e-30
-3.24866e-33
-2.19453e-29
-3.2248e-32
-1.01252e-28
-2.11386e-31
-3.08713e-28
-8.32492e-31
-1.50554e-27
-2.47671e-30
-1.23218e-29
-1.05209e-26
-5.43613e-57
-5.13211e-61
-1.07863e-54
-1.12086e-58
-9.89131e-53
-1.12833e-56
-4.27361e-51
-5.3663e-55
-1.82614e-49
-2.56159e-53
-6.53653e-48
-1.01093e-51
-1.99837e-46
-3.41218e-50
-5.22582e-45
-9.87191e-49
-1.10523e-43
-2.308e-47
-2.00048e-42
-4.63699e-46
-3.55627e-41
-9.18864e-45
-5.98358e-40
-1.70722e-43
-9.28925e-39
-2.9239e-42
-1.33643e-37
-4.64261e-41
-1.79265e-36
-6.87822e-40
-2.26987e-35
-9.5692e-39
-3.20415e-34
-1.28985e-37
-4.56439e-33
-1.83986e-36
-4.91115e-32
-2.22825e-35
-2.96684e-31
-1.81291e-34
-1.07368e-30
-8.43867e-34
-3.44594e-30
-2.79289e-33
-1.51204e-32
-2.03893e-29
-5.13211e-61
-3.18533e-68
-1.126e-58
-7.48109e-66
-1.14436e-56
-9.16735e-64
-5.64408e-55
-5.36277e-62
-2.50732e-53
-2.76462e-60
-1.05021e-51
-1.27899e-58
-3.53915e-50
-4.85623e-57
-1.02894e-48
-1.58256e-55
-2.42239e-47
-4.16911e-54
-4.93009e-46
-9.73776e-53
-9.68165e-45
-2.15884e-51
-1.80404e-43
-4.47954e-50
-3.1043e-42
-8.58249e-49
-4.95304e-41
-1.52535e-47
-7.37352e-40
-2.53081e-46
-1.03126e-38
-3.94272e-45
-1.46581e-37
-5.82681e-44
-2.46424e-36
-9.20315e-43
-3.37193e-35
-1.34176e-41
-2.56189e-34
-1.31455e-40
-1.06245e-33
-7.35243e-40
-3.72495e-33
-2.90819e-39
-2.05576e-38
-1.88454e-32
-3.18513e-68
-1.20707e-72
-8.57645e-66
-2.65711e-70
-9.83171e-64
-3.33159e-68
-4.45089e-62
-2.26748e-66
-2.95271e-60
-1.51537e-64
-1.33763e-58
-7.7316e-63
-5.08549e-57
-3.27307e-61
-1.65757e-55
-1.18962e-59
-4.42983e-54
-3.68558e-58
-1.01793e-52
-9.86186e-57
-2.26029e-51
-2.4677e-55
-4.70481e-50
-5.78263e-54
-9.05147e-49
-1.25314e-52
-1.61548e-47
-2.51929e-51
-2.69174e-46
-4.72941e-50
-4.211e-45
-8.33814e-49
-6.28874e-44
-1.38803e-47
-1.16813e-42
-2.22643e-46
-1.92827e-41
-4.07227e-45
-1.79806e-40
-5.81884e-44
-9.26145e-40
-4.43679e-43
-3.84073e-39
-2.07514e-42
-2.40113e-41
-2.43772e-38
-1.35772e-72
-4.60432e-77
-2.6704e-70
-1.49137e-74
-3.35788e-68
-2.15295e-72
-2.35457e-66
-1.70726e-70
-1.53867e-64
-1.2876e-68
-7.88407e-63
-7.53488e-67
-3.35122e-61
-3.65531e-65
-1.22294e-59
-1.52189e-63
-3.80702e-58
-5.40352e-62
-1.02401e-56
-1.65733e-60
-2.56942e-55
-4.74166e-59
-6.03947e-54
-1.27133e-57
-1.31298e-52
-3.15388e-56
-2.64925e-51
-7.2599e-55
-4.99189e-50
-1.56085e-53
-8.83295e-49
-3.15234e-52
-1.47591e-47
-6.01168e-51
-2.49696e-46
-1.09418e-49
-5.79607e-45
-2.2471e-48
-8.36288e-44
-4.07137e-47
-5.51766e-43
-3.43129e-46
-2.62427e-42
-1.64345e-45
-2.18425e-44
-2.6613e-41
-4.60419e-77
-6.0444e-82
-1.49592e-74
-2.26126e-79
-2.16783e-72
-3.78916e-77
-1.72886e-70
-3.49742e-75
-1.30474e-68
-3.05439e-73
-7.66261e-67
-2.07613e-71
-3.73484e-65
-1.17208e-69
-1.55924e-63
-5.66708e-68
-5.55987e-62
-2.34016e-66
-1.71307e-60
-8.35046e-65
-4.91335e-59
-2.7758e-63
-1.32046e-57
-8.65049e-62
-3.28553e-56
-2.49276e-60
-7.58699e-55
-6.6664e-59
-1.63641e-53
-1.66549e-57
-3.31535e-52
-3.90975e-56
-6.34208e-51
-8.66878e-55
-1.17318e-49
-1.82777e-53
-3.21005e-48
-4.05556e-52
-5.69172e-47
-9.86135e-51
-3.79623e-46
-1.04375e-49
-1.88678e-45
-5.74634e-49
-8.61117e-48
-2.37205e-44
-6.04423e-82
-7.194e-87
-2.26723e-79
-3.16081e-84
-3.8117e-77
-6.24887e-82
-3.53007e-75
-6.80996e-80
-3.07734e-73
-7.00382e-78
-2.12851e-71
-5.74168e-76
-1.19396e-69
-3.81425e-74
-5.79397e-68
-2.18849e-72
-2.40099e-66
-1.0719e-70
-8.6011e-65
-4.54293e-69
-2.86762e-63
-1.80235e-67
-8.9363e-62
-6.65123e-66
-2.58161e-60
-2.27096e-64
-6.92254e-59
-7.19768e-63
-1.7342e-57
-2.13181e-61
-4.08194e-56
-5.93502e-60
-9.07424e-55
-1.56127e-58
-1.92588e-53
-3.89937e-57
-5.46781e-52
-9.36767e-56
-1.35248e-50
-2.68831e-54
-1.06293e-49
-5.26103e-53
-6.13013e-49
-4.52213e-52
-8.69021e-51
-9.21601e-48
-7.19387e-87
-5.70189e-92
-3.16792e-84
-3.16322e-89
-6.16028e-82
-7.49059e-87
-6.68641e-80
-1.00605e-84
-7.62885e-78
-1.41522e-82
-5.81877e-76
-1.34499e-80
-3.89651e-74
-1.09803e-78
-2.24012e-72