/*--------------------------------*- C++ -*----------------------------------*\
| =========                 |                                                 |
| \\      /  F ield         | OpenFOAM: The Open Source CFD Toolbox           |
|  \\    /   O peration     | Version:  2206                                  |
|   \\  /    A nd           | Website:  www.openfoam.com                      |
|    \\/     M anipulation  |                                                 |
\*---------------------------------------------------------------------------*/
FoamFile
{
    version     2.0;
    format      ascii;
    arch        "LSB;label=32;scalar=64";
    class       volScalarField;
    location    "0.175";
    object      p;
}
// * * * * * * * * * * * * * * * * * * * * * * * * * * * * * * * * * * * * * //

dimensions      [1 -1 -2 0 0 0 0];

internalField   nonuniform List<scalar> 
2268
(
2302.61
2302.97
2302.91
2302.61
2302.23
2301.84
2301.45
2301.09
2300.84
2300.74
2300.87
2301.34
2302.24
2303.71
2305.85
2308.65
2312.03
2315.9
2320.06
2324.2
2327.92
2330.78
2332.37
2243.29
2243.66
2243.61
2243.3
2242.93
2242.54
2242.14
2241.79
2241.53
2241.42
2241.54
2241.96
2242.78
2244.06
2245.86
2248.36
2251.59
2255.5
2259.91
2264.54
2268.98
2272.63
2274.78
2183.5
2183.9
2183.84
2183.54
2183.17
2182.78
2182.38
2182.02
2181.75
2181.62
2181.71
2182.08
2182.83
2184.03
2185.77
2188.11
2191.08
2194.66
2198.78
2203.3
2207.89
2211.91
2214.41
2123.23
2123.66
2123.61
2123.32
2122.95
2122.55
2122.15
2121.78
2121.49
2121.33
2121.37
2121.67
2122.3
2123.36
2124.91
2127.01
2129.7
2132.96
2136.71
2140.79
2144.93
2148.6
2150.95
2062.46
2062.92
2062.89
2062.6
2062.23
2061.82
2061.41
2061.03
2060.71
2060.51
2060.48
2060.67
2061.15
2062
2063.27
2065.01
2067.26
2069.98
2073.11
2076.42
2079.59
2082.08
2083.5
2001.17
2001.67
2001.65
2001.36
2000.98
2000.57
2000.14
1999.73
1999.37
1999.1
1998.96
1999
1999.28
1999.84
2000.72
2001.95
2003.5
2005.33
2007.29
2009.13
2010.41
2010.54
2009.1
1939.33
1939.89
1939.88
1939.58
1939.19
1938.76
1938.3
1937.85
1937.43
1937.06
1936.78
1936.62
1936.62
1936.79
1937.13
1937.62
1938.16
1938.58
1938.54
1937.49
1934.42
1927.67
1915.55
1876.95
1877.58
1877.58
1877.27
1876.86
1876.41
1875.92
1875.41
1874.91
1874.43
1873.98
1873.57
1873.21
1872.88
1872.52
1872.02
1871.16
1869.54
1866.48
1861.04
1850.8
1834.59
1786.02
149.684
149.673
149.58
149.109
148.168
148.584
162.157
217.372
264.32
145.026
37.5748
3.88659
3.18224
3.71553
3.36766
2.86211
2.44934
2.19916
2.08587
149.635
149.611
149.494
148.946
147.622
147.589
158.683
202.272
233.741
117.568
20.2412
-2.25914
2.13613
3.6417
3.36016
2.80784
2.37091
2.12219
2.01178
149.564
149.527
149.38
148.843
147.563
147.337
150.076
166.747
156.787
54.5836
-0.0962916
-6.71084
-0.363967
3.04141
3.16232
2.65594
2.24836
2.02047
1.91909
149.466
149.435
149.311
148.892
147.795
141.155
121.652
104.098
66.0075
12.5916
-4.86334
-6.80772
-2.53658
1.73122
2.66125
2.39705
2.0841
1.89644
1.80957
149.352
149.353
149.277
149.021
140.975
116.278
78.1735
41.5443
17.0747
3.32042
-3.34046
-5.57844
-3.34259
0.525192
2.08215
2.08526
1.89352
1.75479
1.68581
149.244
149.36
148.807
141.339
117.226
79.9188
34.1908
9.17162
4.31262
0.991625
-2.29779
-4.17811
-2.98894
0.0196779
1.57852
1.76794
1.68932
1.60031
1.55042
149.158
146.554
135.16
119.403
84.8132
43.3247
6.79443
0.433934
0.946531
-0.00724578
-1.87726
-3.30048
-2.50507
-0.154211
1.17668
1.47026
1.48113
1.43745
1.40617
130.08
120.422
120.749
103.869
62.3834
15.5023
-0.759954
-0.799372
-0.18296
-0.467829
-1.68128
-2.72273
-2.0689
-0.239551
0.851686
1.19935
1.27514
1.27008
1.25584
1778.46
1779.15
1779.19
1778.87
1778.41
1777.9
1777.33
1776.71
1776.03
1775.3
1774.49
1773.59
1772.53
1771.22
1769.47
1766.97
1763.16
1757.06
1746.39
1727.47
1688.72
1613.89
1425.5
1641.49
1642.21
1642.22
1641.82
1641.25
1640.57
1639.76
1638.82
1637.72
1636.41
1634.83
1632.91
1630.49
1627.37
1623.2
1617.44
1609.25
1597.31
1579.64
1553.04
1513.33
1456.34
1384.77
1501.46
1502.15
1502.06
1501.52
1500.79
1499.87
1498.73
1497.35
1495.68
1493.66
1491.19
1488.14
1484.33
1479.51
1473.3
1465.2
1454.51
1440.29
1421.34
1396.01
1362.54
1317.45
1260.79
1358.39
1358.97
1358.69
1357.96
1357
1355.77
1354.2
1352.27
1349.92
1347.06
1343.58
1339.35
1334.15
1327.72
1319.72
1309.68
1297.01
1280.95
1260.59
1234.79
1202.31
1161.75
1113.01
1212.5
1212.89
1212.34
1211.37
1210.13
1208.51
1206.43
1203.86
1200.74
1196.98
1192.46
1187.03
1180.49
1172.59
1163.01
1151.36
1137.13
1119.73
1098.47
1072.6
1041.29
1003.88
959.747
1064.23
1064.33
1063.47
1062.22
1060.64
1058.56
1055.9
1052.63
1048.69
1043.98
1038.38
1031.77
1023.93
1014.65
1003.63
990.519
974.907
956.279
934.07
907.612
876.257
839.392
796.129
914.139
913.915
912.724
911.177
909.202
906.604
903.316
899.299
894.492
888.805
882.128
874.319
865.207
854.577
842.166
827.655
810.665
790.743
767.389
739.942
707.908
670.243
626.729
762.854
762.283
760.788
758.924
756.513
753.357
749.402
744.611
738.921
732.246
724.477
715.483
705.1
693.131
679.328
663.393
644.951
623.561
598.661
569.585
535.674
495.565
450.145
611.131
610.191
608.431
606.238
603.362
599.631
595.001
589.436
582.872
575.228
566.401
556.275
544.703
531.502
516.448
499.267
479.607
457.069
431.036
400.86
365.06
322.74
271.791
460.256
458.909
456.952
454.452
451.133
446.855
441.598
435.321
427.964
419.45
409.688
398.571
385.973
371.746
355.685
337.504
316.845
293.392
266.626
236.172
200.748
162.61
117.143
311.014
309.449
307.401
304.549
300.832
296.05
290.204
283.257
275.15
265.805
255.123
242.992
229.289
213.883
196.624
177.322
155.88
132.499
107.677
81.8366
55.5534
33.1511
16.8694
163.163
160.834
158.989
155.77
151.775
146.714
140.583
133.415
125.299
116.267
106.443
95.7505
84.2358
71.9515
59.09
46.0056
33.2724
21.4849
12.3962
5.70165
0.121495
-1.98898
-2.17292
45.2725
40.6817
40.4729
38.7507
36.3926
33.4813
30.1503
26.5268
22.7295
18.7437
15.0966
11.5018
8.04916
4.80799
1.94751
-0.439683
-1.85705
-2.06276
-2.0993
-2.11764
-2.12435
-2.14032
-2.1421
0.296312
-0.838696
-0.814356
-1.10421
-1.41066
-1.72415
-1.94125
-1.99773
-2.03034
-2.04526
-2.05154
-2.05914
-2.07095
-2.08656
-2.1056
-2.12383
-2.13964
-2.17072
-2.19896
-2.22936
-2.25593
-2.2793
-2.29582
-2.12697
-2.11297
-2.11844
-2.12028
-2.1231
-2.12603
-2.13137
-2.14199
-2.15324
-2.16339
-2.17318
-2.18323
-2.19529
-2.21021
-2.2278
-2.24879
-2.27316
-2.30265
-2.33816
-2.38106
-2.43049
-2.48181
-2.52182
-2.25486
-2.25175
-2.25415
-2.25646
-2.25995
-2.26443
-2.27026
-2.27755
-2.28602
-2.29531
-2.30556
-2.31688
-2.33017
-2.34637
-2.36583
-2.38948
-2.41893
-2.45599
-2.50365
-2.56531
-2.64111
-2.71868
-2.77816
-2.39554
-2.39558
-2.39719
-2.39922
-2.40209
-2.40578
-2.41056
-2.4166
-2.42385
-2.43237
-2.44225
-2.45404
-2.46812
-2.48529
-2.50654
-2.53292
-2.56545
-2.6089
-2.66672
-2.74801
-2.84895
-2.95203
-3.0358
-2.53312
-2.53373
-2.535
-2.5369
-2.53935
-2.54258
-2.54672
-2.55189
-2.55819
-2.56577
-2.57497
-2.58623
-2.59997
-2.61685
-2.63778
-2.6639
-2.6972
-2.74238
-2.80709
-2.89816
-3.01052
-3.12797
-3.25093
-2.66696
-2.66767
-2.6688
-2.67043
-2.67263
-2.67564
-2.6795
-2.68417
-2.68981
-2.69667
-2.70504
-2.71519
-2.72753
-2.74257
-2.76098
-2.78361
-2.81228
-2.85137
-2.90806
-2.98695
-3.0836
-3.19435
-3.32994
-2.79867
-2.79929
-2.80038
-2.80198
-2.80417
-2.80689
-2.81015
-2.81419
-2.81922
-2.8254
-2.83284
-2.84159
-2.85189
-2.8641
-2.87869
-2.89609
-2.91737
-2.94545
-2.98445
-3.03537
-3.09636
-3.17575
-3.28694
-2.92928
-2.92969
-2.93064
-2.93212
-2.93415
-2.93657
-2.9394
-2.94287
-2.94719
-2.95251
-2.95884
-2.96616
-2.97456
-2.98429
-2.99564
-3.00877
-3.0242
-3.04335
-3.06763
-3.09586
-3.12711
-3.17189
-3.24487
-3.05892
-3.05934
-3.06025
-3.06153
-3.06312
-3.06514
-3.06773
-3.07087
-3.07462
-3.07907
-3.08426
-3.09022
-3.09704
-3.10488
-3.1139
-3.12421
-3.13607
-3.15012
-3.16656
-3.18406
-3.20236
-3.22872
-3.27196
-3.18821
-3.18864
-3.18945
-3.19053
-3.19188
-3.19365
-3.19591
-3.19864
-3.20183
-3.20551
-3.20977
-3.21468
-3.22031
-3.22674
-3.23402
-3.24221
-3.25146
-3.26212
-3.27413
-3.28676
-3.30045
-3.31961
-3.34767
-3.31751
-3.31788
-3.3186
-3.3196
-3.32096
-3.32262
-3.32451
-3.32669
-3.32927
-3.33232
-3.33591
-3.34008
-3.34485
-3.3502
-3.35615
-3.36276
-3.37017
-3.37856
-3.38788
-3.39776
-3.40862
-3.42282
-3.44169
-3.44714
-3.44741
-3.44805
-3.44905
-3.45033
-3.45177
-3.45336
-3.45519
-3.45736
-3.45997
-3.46306
-3.46664
-3.4707
-3.47521
-3.48018
-3.48569
-3.49185
-3.49879
-3.50646
-3.51466
-3.52364
-3.53466
-3.54822
-3.57742
-3.57769
-3.57831
-3.57918
-3.58019
-3.58133
-3.58269
-3.58432
-3.58627
-3.58858
-3.59128
-3.59439
-3.59791
-3.60184
-3.60619
-3.61097
-3.61626
-3.62212
-3.62851
-3.63534
-3.64276
-3.65147
-3.6617
-3.70812
-3.70846
-3.70905
-3.70974
-3.71053
-3.71154
-3.7128
-3.71433
-3.71611
-3.71818
-3.72054
-3.72324
-3.72631
-3.72977
-3.73362
-3.73786
-3.74248
-3.7475
-3.75289
-3.75862
-3.76477
-3.77174
-3.77968
-3.83931
-3.83953
-3.83991
-3.84046
-3.84124
-3.84226
-3.84352
-3.84499
-3.84665
-3.84852
-3.85061
-3.85296
-3.85561
-3.8586
-3.86193
-3.86562
-3.86964
-3.87399
-3.87861
-3.88348
-3.88864
-3.89432
-3.90062
-3.97081
-3.97092
-3.97115
-3.97163
-3.9724
-3.97336
-3.97451
-3.97584
-3.97734
-3.97902
-3.98089
-3.98296
-3.98528
-3.98787
-3.99075
-3.99392
-3.99738
-4.00111
-4.00507
-4.00922
-4.01357
-4.01827
-4.02339
-4.10231
-4.10244
-4.10274
-4.10322
-4.10387
-4.10466
-4.10561
-4.10673
-4.10802
-4.10948
-4.11112
-4.11295
-4.11499
-4.11725
-4.11974
-4.12246
-4.12541
-4.12859
-4.13196
-4.13548
-4.13917
-4.14311
-4.14736
-4.23394
-4.2341
-4.23444
-4.23485
-4.23536
-4.23602
-4.23684
-4.2378
-4.23891
-4.24017
-4.24157
-4.24312
-4.24484
-4.24674
-4.24884
-4.25113
-4.25362
-4.2563
-4.25916
-4.26217
-4.26533
-4.26868
-4.27227
-4.36586
-4.36596
-4.36616
-4.36646
-4.36689
-4.36747
-4.3682
-4.36905
-4.37001
-4.37107
-4.37223
-4.3735
-4.37489
-4.37644
-4.37815
-4.38005
-4.38213
-4.38439
-4.38682
-4.3894
-4.3921
-4.39497
-4.39799
-4.49787
-4.49793
-4.49803
-4.49828
-4.49867
-4.49917
-4.49977
-4.50046
-4.50123
-4.50208
-4.50301
-4.50403
-4.50517
-4.50644
-4.50785
-4.50943
-4.51116
-4.51306
-4.5151
-4.51727
-4.51954
-4.52192
-4.52441
-4.62973
-4.62978
-4.62993
-4.63019
-4.63053
-4.63093
-4.63138
-4.6319
-4.63248
-4.63314
-4.63389
-4.63474
-4.63569
-4.63676
-4.63794
-4.63925
-4.64068
-4.64224
-4.6439
-4.64565
-4.64747
-4.64938
-4.65134
-4.76162
-4.76168
-4.76186
-4.76208
-4.76233
-4.76262
-4.76295
-4.76334
-4.7638
-4.76433
-4.76495
-4.76566
-4.76645
-4.76733
-4.76829
-4.76933
-4.77046
-4.77167
-4.77295
-4.77429
-4.77568
-4.77712
-4.77861
-4.89369
-4.89375
-4.89386
-4.89398
-4.89413
-4.89432
-4.89456
-4.89486
-4.89521
-4.89564
-4.89614
-4.89669
-4.89731
-4.89798
-4.8987
-4.89946
-4.90028
-4.90114
-4.90206
-4.90301
-4.904
-4.90503
-4.90611
-5.02585
-5.02587
-5.02589
-5.02593
-5.02602
-5.02614
-5.0263
-5.0265
-5.02674
-5.02703
-5.02736
-5.02774
-5.02815
-5.02858
-5.02904
-5.02952
-5.03003
-5.03057
-5.03115
-5.03176
-5.0324
-5.03309
-5.03382
-5.158
-5.15798
-5.15796
-5.15798
-5.15803
-5.15809
-5.15817
-5.15825
-5.15835
-5.15847
-5.15862
-5.15879
-5.15898
-5.15917
-5.15937
-5.15958
-5.1598
-5.16004
-5.16031
-5.16061
-5.16094
-5.16132
-5.16173
-5.29036
-5.29037
-5.29036
-5.29038
-5.29038
-5.29036
-5.29032
-5.29027
-5.29021
-5.29016
-5.29012
-5.29008
-5.29003
-5.28998
-5.28991
-5.28985
-5.28979
-5.28974
-5.28971
-5.28971
-5.28974
-5.28981
-5.28991
-5.42298
-5.42304
-5.42305
-5.42305
-5.423
-5.4229
-5.42275
-5.42256
-5.42236
-5.42214
-5.42191
-5.42166
-5.42139
-5.4211
-5.42078
-5.42046
-5.42013
-5.4198
-5.41949
-5.41919
-5.41892
-5.41868
-5.41845
-5.55569
-5.55572
-5.55571
-5.55567
-5.55556
-5.55539
-5.55515
-5.55485
-5.55452
-5.55415
-5.55375
-5.55331
-5.55284
-5.55233
-5.55179
-5.55123
-5.55066
-5.55008
-5.54949
-5.54892
-5.54835
-5.5478
-5.54726
-5.68851
-5.68885
-5.68887
-5.68879
-5.68861
-5.68833
-5.68798
-5.68756
-5.68708
-5.68653
-5.68593
-5.68528
-5.68458
-5.68385
-5.68308
-5.68228
-5.68146
-5.68062
-5.67977
-5.6789
-5.67803
-5.67717
-5.6763
800.029
1078.91
1056.83
679.749
1157.18
1015.96
896.839
607.657
1083.86
870.098
713.151
481.269
983.809
768.975
570.765
341.396
846.891
625.939
389.067
158.351
687.622
453.578
189.385
32.6799
513.959
248.66
41.5069
1.32441
322.832
74.499
3.66725
-2.18141
125.053
8.45197
-1.57482
-2.68214
15.9776
-1.08233
-2.5169
-2.75404
-0.614089
-2.19129
-2.65362
-2.71734
-1.92661
-2.35284
-2.62282
-2.70819
-2.1916
-2.36432
-2.59388
-2.70978
-2.36354
-2.39737
-2.63259
-2.74826
-2.5827
-2.53509
-2.7406
-2.82158
-2.8457
-2.83939
-2.8939
-2.91728
-3.18648
-3.23571
-3.06838
-3.02568
-3.55347
-3.58969
-3.22093
-3.13299
-3.65222
-3.69802
-3.3203
-3.22293
-3.52996
-3.56857
-3.35321
-3.28976
-3.40805
-3.42909
-3.35212
-3.34576
-3.36772
-3.38851
-3.38567
-3.40852
-3.40582
-3.43502
-3.45633
-3.484
-3.48106
-3.51442
-3.54691
-3.57068
-3.57676
-3.60884
-3.6408
-3.66441
-3.6837
-3.7128
-3.74158
-3.76389
-3.79721
-3.8228
-3.84791
-3.86831
-3.91476
-3.93679
-3.95847
-3.97681
-4.03498
-4.05371
-4.07231
-4.08856
-4.15701
-4.17284
-4.1887
-4.20294
-4.28037
-4.29365
-4.30709
-4.31943
-4.40474
-4.41579
-4.42709
-4.43766
-4.5299
-4.53896
-4.54835
-4.5573
-4.65567
-4.66295
-4.67063
-4.67809
-4.78191
-4.7876
-4.79374
-4.79982
-4.90851
-4.91279
-4.91752
-4.92234
-5.03544
-5.03843
-5.04187
-5.04551
-5.16263
-5.16443
-5.16669
-5.16922
-5.29013
-5.29079
-5.29191
-5.2934
-5.41796
-5.41751
-5.41752
-5.41798
-5.54605
-5.54451
-5.54346
-5.54292
-5.6744
-5.67178
-5.66966
-5.66813
189.474
116.521
126.553
92.5045
40.9083
9.66924
-0.565516
-0.788511
-0.665155
-0.782692
-1.54058
-2.07553
-1.54423
-0.363242
0.444246
0.820371
0.963489
1.00685
1.01582
276.283
131.521
86.4551
41.0264
7.47174
-1.6622
-1.07424
-0.974725
-0.910172
-0.999288
-1.38634
-1.58747
-1.21214
-0.499475
0.066383
0.407965
0.582542
0.661363
0.690337
227.901
84.8699
34.3772
5.8037
-1.24276
-1.48716
-1.33437
-1.19436
-1.10331
-1.17242
-1.33402
-1.37046
-1.09256
-0.622974
-0.214838
0.0733178
0.245971
0.337775
0.376561
133.063
30.8214
0.708493
-1.70929
-1.74178
-1.65565
-1.51349
-1.37051
-1.28598
-1.29962
-1.34553
-1.30318
-1.08321
-0.754312
-0.44597
-0.209985
-0.0526689
0.0393298
0.0810701
30.793
-0.555991
-2.11435
-2.08402
-1.94521
-1.7973
-1.65459
-1.52307
-1.43949
-1.41275
-1.39435
-1.31579
-1.13509
-0.89063
-0.651852
-0.458404
-0.320426
-0.234683
-0.193996
0.834634
-2.23997
-2.36979
-2.22692
-2.06901
-1.92167
-1.78254
-1.65879
-1.57277
-1.5196
-1.46626
-1.37345
-1.22081
-1.03024
-0.841455
-0.681773
-0.56342
-0.486749
-0.449049
-2.2383
-2.55809
-2.4725
-2.32959
-2.17454
-2.02876
-1.89487
-1.7801
-1.69314
-1.6245
-1.55366
-1.45749
-1.32593
-1.17209
-1.01974
-0.887811
-0.786653
-0.719589
-0.685692
-2.68652
-2.65585
-2.54078
-2.40626
-2.25758
-2.11925
-1.99663
-1.89166
-1.8054
-1.7297
-1.65163
-1.55757
-1.44271
-1.31522
-1.18996
-1.08016
-0.994192
-0.936183
-0.9062
-2.75707
-2.6948
-2.58403
-2.45553
-2.32331
-2.20216
-2.0932
-1.99717
-1.91331
-1.83589
-1.75655
-1.66738
-1.56625
-1.45855
-1.35391
-1.26175
-1.18878
-1.13889
-1.11283
-2.75307
-2.69846
-2.60315
-2.49534
-2.38607
-2.28269
-2.18658
-2.09895
-2.01905
-1.94312
-1.86595
-1.78298
-1.69346
-1.6012
-1.5127
-1.43473
-1.37266
-1.32989
-1.30746
-2.73382
-2.69289
-2.62296
-2.53969
-2.45082
-2.36273
-2.27814
-2.1986
-2.12375
-2.05131
-1.97821
-1.90194
-1.82246
-1.74262
-1.66705
-1.60064
-1.54768
-1.51104
-1.49183
-2.72979
-2.70438
-2.65623
-2.59144
-2.51861
-2.44342
-2.36907
-2.29727
-2.22809
-2.16032
-2.0923
-2.02277
-1.95214
-1.88259
-1.81755
-1.76067
-1.7153
-1.68389
-1.66745
-2.74728
-2.7359
-2.70199
-2.65027
-2.58997
-2.52558
-2.46028
-2.3958
-2.33255
-2.27005
-2.20755
-2.1446
-2.08183
-2.02097
-1.96466
-1.91569
-1.87668
-1.84966
-1.83558
-2.78729
-2.78356
-2.75779
-2.71572
-2.66515
-2.60973
-2.5524
-2.49477
-2.43744
-2.38043
-2.32356
-2.26687
-2.21111
-2.15771
-2.10873
-2.06637
-2.03269
-2.00939
-1.99729
-2.84757
-2.84444
-2.82242
-2.7872
-2.74411
-2.6962
-2.64586
-2.59455
-2.54296
-2.49138
-2.44004
-2.38921
-2.33971
-2.29277
-2.25002
-2.21323
-2.18407
-2.16391
-2.15349
-2.92322
-2.9157
-2.89453
-2.86393
-2.82666
-2.78506
-2.74088
-2.69536
-2.6492
-2.60287
-2.55679
-2.51139
-2.46749
-2.42618
-2.38878
-2.35675
-2.33142
-2.31393
-2.30496
-3.00834
-2.99395
-2.97231
-2.94496
-2.91243
-2.87623
-2.83752
-2.79729
-2.75622
-2.71484
-2.67368
-2.63328
-2.5944
-2.55803
-2.52529
-2.49733
-2.47529
-2.4601
-2.45236
-3.09591
-3.07569
-3.05389
-3.02933
-3.00096
-2.96954
-2.93575
-2.90037
-2.86402
-2.82727
-2.79068
-2.75484
-2.72049
-2.68849
-2.65979
-2.63537
-2.61616
-2.60296
-2.59628
-3.17955
-3.15803
-3.13776
-3.11626
-3.09187
-3.06483
-3.03553
-3.0046
-2.97263
-2.94017
-2.90781
-2.87613
-2.84585
-2.81771
-2.79256
-2.77122
-2.75446
-2.74297
-2.73721
-3.25712
-3.23979
-3.2232
-3.20536
-3.18492
-3.16197
-3.13682
-3.11
-3.08207
-3.05358
-3.02509
-2.9972
-2.97056
-2.94587
-2.92383
-2.90517
-2.89055
-2.88054
-2.87557
-3.33154
-3.32188
-3.31033
-3.29659
-3.28006
-3.26096
-3.23962
-3.21659
-3.19237
-3.16751
-3.14256
-3.1181
-3.09473
-3.07308
-3.05379
-3.03748
-3.02472
-3.016
-3.01172
-3.40844
-3.4063
-3.39984
-3.39017
-3.37733
-3.36179
-3.34395
-3.32436
-3.30351
-3.28196
-3.26022
-3.23885
-3.21841
-3.19947
-3.1826
-3.16836
-3.15723
-3.14963
-3.14595
-3.49176
-3.49475
-3.49245
-3.48636
-3.47684
-3.46449
-3.44979
-3.4333
-3.4155
-3.39693
-3.37808
-3.35949
-3.34167
-3.32514
-3.31042
-3.29801
-3.2883
-3.28168
-3.27852
-3.58194
-3.58782
-3.58855
-3.58534
-3.57863
-3.56907
-3.55714
-3.5434
-3.52832
-3.51242
-3.49617
-3.48006
-3.46458
-3.4502
-3.43739
-3.42658
-3.41813
-3.41237
-3.40966
-3.67767
-3.68524
-3.68809
-3.68709
-3.6827
-3.6755
-3.66597
-3.65464
-3.64197
-3.62844
-3.6145
-3.60061
-3.58721
-3.57474
-3.56361
-3.55423
-3.54689
-3.54189
-3.53958
-3.77796
-3.78651
-3.79081
-3.79148
-3.78894
-3.78371
-3.77623
-3.767
-3.75644
-3.74501
-3.73312
-3.7212
-3.70964
-3.69886
-3.68923
-3.6811
-3.67474
-3.6704
-3.66844
-3.88226
-3.89121
-3.89642
-3.8983
-3.89723
-3.89361
-3.88788
-3.88045
-3.87173
-3.86214
-3.85206
-3.84187
-3.83195
-3.82266
-3.81435
-3.80732
-3.80182
-3.79807
-3.79641
-3.99003
-3.99894
-4.00463
-4.00736
-4.0074
-4.0051
-4.00082
-3.99493
-3.98781
-3.97983
-3.97133
-3.96266
-3.95418
-3.9462
-3.93905
-3.93299
-3.92825
-3.92502
-3.92364
-4.10076
-4.10933
-4.11517
-4.11843
-4.11929
-4.11804
-4.11496
-4.11038
-4.10464
-4.09804
-4.09092
-4.08359
-4.07637
-4.06956
-4.06343
-4.05823
-4.05415
-4.05138
-4.05023
-4.21398
-4.222
-4.22776
-4.2313
-4.23275
-4.2323
-4.2302
-4.22672
-4.22214
-4.21675
-4.21083
-4.20467
-4.19856
-4.19277
-4.18754
-4.18309
-4.17961
-4.17724
-4.17629
-4.32924
-4.33662
-4.34213
-4.34576
-4.34759
-4.34776
-4.34644
-4.34387
-4.34028
-4.33591
-4.33103
-4.3259
-4.32076
-4.31587
-4.31143
-4.30766
-4.30469
-4.30267
-4.3019
-4.44626
-4.4529
-4.45804
-4.46163
-4.46368
-4.46428
-4.46358
-4.46175
-4.45898
-4.4555
-4.45152
-4.44727
-4.44299
-4.43889
-4.43515
-4.43197
-4.42946
-4.42775
-4.42712
-4.56473
-4.57061
-4.57531
-4.57873
-4.58087
-4.58177
-4.58153
-4.58029
-4.57821
-4.57547
-4.57226
-4.56878
-4.56525
-4.56184
-4.55872
-4.55605
-4.55395
-4.5525
-4.552
-4.68441
-4.68952
-4.69372
-4.6969
-4.69903
-4.70011
-4.70021
-4.69944
-4.69791
-4.69579
-4.69324
-4.69043
-4.68754
-4.68473
-4.68216
-4.67994
-4.67819
-4.67699
-4.6766
-4.8051
-4.80945
-4.81313
-4.81602
-4.81805
-4.81921
-4.81955
-4.81913
-4.81805
-4.81644
-4.81444
-4.81219
-4.80986
-4.80758
-4.80548
-4.80367
-4.80223
-4.80124
-4.80094
-4.92663
-4.93025
-4.9334
-4.93595
-4.93782
-4.93899
-4.93947
-4.93931
-4.93858
-4.93738
-4.93584
-4.93408
-4.93222
-4.9304
-4.92871
-4.92725
-4.92609
-4.92528
-4.92507
-5.04886
-5.05177
-5.05439
-5.05658
-5.05825
-5.05936
-5.05991
-5.05992
-5.05945
-5.05859
-5.05743
-5.05607
-5.05463
-5.0532
-5.05187
-5.05072
-5.04981
-5.04916
-5.04903
-5.17168
-5.17391
-5.176
-5.17781
-5.17924
-5.18024
-5.18079
-5.18091
-5.18064
-5.18004
-5.17919
-5.17818
-5.17709
-5.176
-5.17499
-5.17412
-5.17342
-5.17292
-5.17285
-5.29501
-5.29659
-5.29815
-5.29956
-5.30072
-5.30156
-5.30207
-5.30224
-5.30211
-5.30172
-5.30113
-5.3004
-5.29962
-5.29883
-5.29809
-5.29746
-5.29695
-5.29657
-5.29656
-5.41877
-5.41971
-5.42076
-5.42177
-5.42263
-5.42328
-5.42369
-5.42387
-5.42383
-5.42359
-5.42321
-5.42274
-5.42222
-5.42169
-5.4212
-5.42077
-5.42042
-5.42016
-5.42019
-5.5429
-5.54321
-5.54377
-5.54437
-5.54491
-5.54533
-5.54561
-5.54575
-5.54575
-5.54564
-5.54544
-5.54518
-5.54488
-5.54459
-5.54431
-5.54406
-5.54387
-5.5437
-5.54376
-5.66731
-5.66704
-5.66715
-5.66735
-5.66753
-5.66769
-5.66779
-5.66786
-5.66787
-5.66785
-5.6678
-5.66772
-5.66764
-5.66755
-5.66746
-5.66739
-5.66733
-5.66727
-5.6673
)
;

boundaryField
{
    leftWall
    {
        type            calculated;
        value           nonuniform List<scalar> 
50
(
2302.61
2243.29
2183.5
2123.23
2062.46
2001.17
1939.33
1876.95
1778.46
1641.49
1501.46
1358.39
1212.5
1064.23
914.139
762.854
611.131
460.256
311.014
163.163
45.2725
0.296312
-2.12697
-2.25486
-2.39554
-2.53312
-2.66696
-2.79867
-2.92928
-3.05892
-3.18821
-3.31751
-3.44714
-3.57742
-3.70812
-3.83931
-3.97081
-4.10231
-4.23394
-4.36586
-4.49787
-4.62973
-4.76162
-4.89369
-5.02585
-5.158
-5.29036
-5.42298
-5.55569
-5.68851
)
;
    }
    rightWall
    {
        type            calculated;
        value           nonuniform List<scalar> 
50
(
2.08587
2.01178
1.91909
1.80957
1.68581
1.55042
1.40617
1.25584
1.01582
0.690337
0.376561
0.0810701
-0.193996
-0.449049
-0.685692
-0.9062
-1.11283
-1.30746
-1.49183
-1.66745
-1.83558
-1.99729
-2.15349
-2.30496
-2.45236
-2.59628
-2.73721
-2.87557
-3.01172
-3.14595
-3.27852
-3.40966
-3.53958
-3.66844
-3.79641
-3.92364
-4.05023
-4.17629
-4.3019
-4.42712
-4.552
-4.6766
-4.80094
-4.92507
-5.04903
-5.17285
-5.29656
-5.42019
-5.54376
-5.6673
)
;
    }
    lowerWall
    {
        type            calculated;
        value           nonuniform List<scalar> 
62
(
2332.04
2332.4
2332.34
2332.04
2331.66
2331.27
2330.88
2330.52
2330.26
2330.17
2330.3
2330.77
2331.66
2333.14
2335.28
2338.08
2341.46
2345.33
2349.49
2353.63
2357.34
2360.21
2361.8
2332.37
2274.78
2214.41
2150.95
2083.5
2009.1
1915.55
1786.02
862.626
1141.51
1119.43
742.346
149.684
149.635
149.564
149.466
149.352
149.244
149.158
130.08
149.713
149.702
149.61
149.142
148.253
148.82
162.492
217.963
265.514
146.067
38.1708
4.05521
3.22976
3.74803
3.39749
2.89157
2.47877
2.22859
2.1153
)
;
    }
    atmosphere
    {
        type            calculated;
        value           nonuniform List<scalar> 
46
(
-5.75432
-5.75618
-5.75599
-5.7558
-5.75553
-5.75517
-5.75474
-5.75424
-5.75365
-5.753
-5.75228
-5.7515
-5.75067
-5.74981
-5.7489
-5.74797
-5.74701
-5.74603
-5.74502
-5.74401
-5.74298
-5.74195
-5.74092
-5.73868
-5.73551
-5.73286
-5.73086
-5.72966
-5.72911
-5.72904
-5.72904
-5.72904
-5.72904
-5.72904
-5.72904
-5.72904
-5.72904
-5.72904
-5.72904
-5.72904
-5.72904
-5.72904
-5.72904
-5.72904
-5.72904
-5.72904
)
;
    }
    defaultFaces
    {
        type            empty;
    }
}


// ************************************************************************* //
