/*--------------------------------*- C++ -*----------------------------------*\
| =========                 |                                                 |
| \\      /  F ield         | OpenFOAM: The Open Source CFD Toolbox           |
|  \\    /   O peration     | Version:  2206                                  |
|   \\  /    A nd           | Website:  www.openfoam.com                      |
|    \\/     M anipulation  |                                                 |
\*---------------------------------------------------------------------------*/
FoamFile
{
    version     2.0;
    format      ascii;
    arch        "LSB;label=32;scalar=64";
    class       volScalarField;
    location    "0.175";
    object      p_rgh;
}
// * * * * * * * * * * * * * * * * * * * * * * * * * * * * * * * * * * * * * //

dimensions      [1 -1 -2 0 0 0 0];

internalField   nonuniform List<scalar> 
2268
(
2332.04
2332.4
2332.34
2332.04
2331.66
2331.27
2330.88
2330.52
2330.26
2330.17
2330.3
2330.77
2331.66
2333.14
2335.28
2338.08
2341.46
2345.33
2349.49
2353.63
2357.34
2360.21
2361.8
2331.58
2331.95
2331.89
2331.59
2331.22
2330.83
2330.43
2330.08
2329.81
2329.71
2329.82
2330.25
2331.07
2332.34
2334.15
2336.65
2339.88
2343.79
2348.2
2352.82
2357.26
2360.92
2363.07
2330.65
2331.04
2330.99
2330.69
2330.32
2329.93
2329.53
2329.17
2328.9
2328.77
2328.86
2329.23
2329.97
2331.17
2332.92
2335.25
2338.22
2341.81
2345.93
2350.44
2355.04
2359.06
2361.56
2329.24
2329.66
2329.62
2329.32
2328.95
2328.56
2328.16
2327.79
2327.5
2327.34
2327.38
2327.67
2328.31
2329.37
2330.91
2333.01
2335.7
2338.97
2342.72
2346.8
2350.93
2354.6
2356.96
2327.33
2327.79
2327.76
2327.46
2327.09
2326.69
2326.28
2325.89
2325.58
2325.38
2325.34
2325.53
2326.02
2326.86
2328.13
2329.88
2332.12
2334.85
2337.97
2341.28
2344.45
2346.94
2348.37
2324.89
2325.4
2325.38
2325.08
2324.71
2324.29
2323.86
2323.45
2323.09
2322.82
2322.68
2322.73
2323
2323.56
2324.44
2325.67
2327.23
2329.06
2331.02
2332.86
2334.14
2334.27
2332.82
2321.91
2322.47
2322.47
2322.17
2321.77
2321.34
2320.88
2320.43
2320.01
2319.64
2319.36
2319.21
2319.2
2319.37
2319.71
2320.2
2320.74
2321.16
2321.12
2320.08
2317
2310.25
2298.13
2318.39
2319.02
2319.02
2318.71
2318.3
2317.85
2317.36
2316.85
2316.35
2315.87
2315.42
2315.01
2314.65
2314.32
2313.96
2313.46
2312.6
2310.98
2307.93
2302.48
2292.24
2276.03
2227.46
149.713
149.702
149.61
149.142
148.253
148.82
162.492
217.963
265.514
146.067
38.1708
4.05521
3.22976
3.74803
3.39749
2.89157
2.47877
2.22859
2.1153
149.723
149.7
149.584
149.056
147.914
147.991
159.798
215.201
253.875
135.463
30.2034
-1.099
2.46423
3.7849
3.45774
2.89729
2.45927
2.21048
2.10007
149.712
149.675
149.537
149.033
147.779
148.441
190.935
239.296
222.909
103.471
23.7736
-4.56899
0.43245
3.34064
3.33263
2.80535
2.39564
2.16763
2.06624
149.672
149.641
149.518
149.101
149.033
203.804
252.511
227.506
136.314
29.8676
-2.74807
-3.73384
0.126753
2.51556
2.91199
2.60511
2.29023
2.10245
2.01558
149.617
149.618
149.542
150.562
225.124
317.708
273.927
172.3
44.17
6.04004
-1.91393
-3.65417
-1.58062
1.34717
2.41113
2.35149
2.15847
2.01966
1.95067
149.568
149.685
154.845
256.261
401.069
362.024
288.877
74.008
8.22522
2.39289
-1.49855
-3.21104
-2.34204
0.44296
1.92342
2.0925
2.01309
1.92404
1.87415
149.541
193.878
345.681
490.424
446.991
394.915
133.556
9.68987
2.84758
0.765109
-1.31838
-2.75378
-1.97424
0.260331
1.56589
1.8533
1.86373
1.82004
1.78875
411.075
516.338
560.826
537.307
490.485
354.219
72.1993
3.1703
0.908683
0.07497
-1.21515
-2.23605
-1.58346
0.215915
1.29494
1.64097
1.71659
1.71152
1.69728
2311.93
2312.61
2312.66
2312.33
2311.88
2311.37
2310.8
2310.17
2309.5
2308.77
2307.96
2307.06
2306
2304.68
2302.93
2300.44
2296.63
2290.52
2279.86
2260.94
2222.19
2147.36
1958.97
2300.15
2300.87
2300.88
2300.48
2299.91
2299.23
2298.43
2297.48
2296.38
2295.07
2293.5
2291.57
2289.16
2286.03
2281.86
2276.1
2267.91
2255.97
2238.3
2211.7
2172
2115
2043.43
2285.31
2286.01
2285.91
2285.38
2284.64
2283.73
2282.59
2281.21
2279.54
2277.51
2275.04
2271.99
2268.19
2263.36
2257.15
2249.05
2238.36
2224.15
2205.19
2179.87
2146.39
2101.3
2044.64
2267.44
2268.02
2267.74
2267.01
2266.05
2264.82
2263.25
2261.32
2258.97
2256.11
2252.63
2248.4
2243.2
2236.77
2228.77
2218.73
2206.06
2190
2169.64
2143.84
2111.36
2070.8
2022.06
2246.75
2247.13
2246.59
2245.62
2244.38
2242.75
2240.68
2238.11
2234.99
2231.23
2226.71
2221.27
2214.73
2206.83
2197.26
2185.61
2171.38
2153.98
2132.72
2106.84
2075.54
2038.13
1993.99
2223.66
2223.77
2222.91
2221.66
2220.08
2218
2215.34
2212.07
2208.13
2203.42
2197.82
2191.2
2183.37
2174.08
2163.06
2149.96
2134.35
2115.72
2093.51
2067.05
2035.69
1998.83
1955.56
2198.77
2198.55
2197.36
2195.81
2193.84
2191.24
2187.95
2183.93
2179.13
2173.44
2166.76
2158.95
2149.84
2139.21
2126.8
2112.28
2095.29
2075.37
2052.01
2024.55
1992.51
1954.81
1911.26
2172.68
2172.11
2170.61
2168.75
2166.34
2163.18
2159.22
2154.43
2148.74
2142.07
2134.29
2125.3
2114.91
2102.94
2089.12
2073.18
2054.72
2033.3
2008.38
1979.2
1945.15
1904.84
1859.05
2146.14
2145.17
2143.42
2141.23
2138.35
2134.61
2129.98
2124.41
2117.84
2110.18
2101.34
2091.19
2079.58
2066.34
2051.22
2033.95
2014.16
1991.44
1965.07
1934.51
1897.59
1853.81
1800.84
2120.33
2118.8
2116.89
2114.4
2111.07
2106.77
2101.48
2095.15
2087.74
2079.14
2069.27
2057.99
2045.18
2030.65
2014.18
1995.4
1973.93
1949.24
1920.53
1886.8
1846.09
1772.28
1690.59
2095.25
2092.66
2090.9
2088.06
2084.23
2079.29
2073.23
2066
2057.51
2047.65
2036.23
2023.1
2008.05
1990.78
1971.02
1945.54
1900.65
1822.15
1695.91
1500.89
1188.28
841.669
596.283
2064.83
2052.28
2053.71
2049.22
2041.41
2030.39
2016.06
1993.41
1962.09
1920.2
1862.24
1784.52
1685.28
1554.65
1393.16
1195.85
963.931
692.267
446.866
242.826
63.6452
-0.0767589
-0.259353
1387.31
1207.89
1239.28
1212.46
1161.87
1095.77
1013.38
914.051
806.061
687.733
568.129
448.21
333.086
225.189
131.108
51.9148
0.178747
-0.0269595
-0.0634964
-0.0818258
-0.0884763
-0.104039
-0.104586
84.0369
37.5331
41.3987
31.2052
20.3687
8.56464
0.219742
0.163263
0.130657
0.115734
0.109456
0.101861
0.0900437
0.0744409
0.0553912
0.0371619
0.0213565
-0.00972618
-0.0379673
-0.0683609
-0.0949269
-0.118225
-0.134319
0.159218
0.173221
0.167753
0.165906
0.163093
0.160156
0.154819
0.144204
0.132952
0.122796
0.112994
0.102926
0.0908658
0.0759562
0.0583738
0.0373925
0.01303
-0.0164625
-0.0519714
-0.0948623
-0.144261
-0.195287
-0.233441
0.156524
0.159637
0.157239
0.154927
0.151432
0.146955
0.141128
0.13384
0.125362
0.116074
0.105806
0.0944456
0.081173
0.0649883
0.045543
0.0218986
-0.0075434
-0.044599
-0.0922341
-0.153663
-0.227901
-0.297387
-0.248625
0.141041
0.140999
0.139387
0.137362
0.134491
0.130802
0.126023
0.119981
0.112733
0.1042
0.0942996
0.0824818
0.0684218
0.0512643
0.03003
0.00365225
-0.0288673
-0.0723087
-0.13005
-0.210766
-0.308009
-0.385112
-0.162538
0.128653
0.128047
0.126776
0.124869
0.122422
0.119194
0.115057
0.109883
0.103586
0.0959934
0.0867808
0.0755026
0.0617868
0.0449119
0.0239863
-0.00212131
-0.0354215
-0.0806028
-0.145268
-0.2361
-0.347579
-0.458603
-0.168157
0.120009
0.119302
0.11817
0.116539
0.114339
0.111328
0.107474
0.102798
0.0971584
0.0902973
0.081923
0.0717642
0.0594344
0.0443949
0.0259895
0.00335884
-0.0253109
-0.0643936
-0.12107
-0.199871
-0.296134
-0.405421
-0.535909
0.113496
0.112874
0.111785
0.110186
0.10799
0.105273
0.102011
0.0979693
0.0929414
0.0867591
0.079328
0.0705683
0.0602778
0.0480649
0.0334759
0.0160702
-0.00520805
-0.0332843
-0.0722848
-0.123199
-0.184165
-0.263483
-0.374432
0.108081
0.107664
0.106721
0.105233
0.103209
0.100789
0.0979567
0.0944924
0.0901643
0.0848439
0.0785179
0.071202
0.0628014
0.0530637
0.0417203
0.028585
0.0131575
-0.00599599
-0.030274
-0.0584988
-0.0897434
-0.134509
-0.207435
0.103635
0.103212
0.102307
0.101018
0.0994329
0.0974152
0.094827
0.0916829
0.0879306
0.0834848
0.078295
0.0723323
0.0655148
0.0576754
0.0486511
0.0383406
0.0264772
0.0124308
-0.00401052
-0.0215074
-0.0398065
-0.0661702
-0.109406
0.0995383
0.0991102
0.0982965
0.097215
0.095862
0.0940981
0.0918381
0.0891062
0.0859206
0.0822368
0.077976
0.0730648
0.0674328
0.0610038
0.0537224
0.0455413
0.0362834
0.0256281
0.0136154
0.000984367
-0.0127018
-0.0318649
-0.0599232
0.095431
0.0950588
0.0943439
0.0933391
0.0919766
0.0903185
0.0884335
0.0862472
0.0836707
0.0806216
0.0770301
0.0728578
0.0680956
0.0627419
0.0567863
0.0501799
0.0427762
0.0343846
0.0250622
0.0151772
0.00432391
-0.00987564
-0.0287511
0.0909913
0.0907287
0.0900865
0.0890853
0.0878022
0.0863611
0.0847736
0.0829498
0.0807774
0.0781691
0.0750763
0.0714921
0.0674369
0.0629278
0.057953
0.0524484
0.0462871
0.0393477
0.0316791
0.0234801
0.0144937
0.00347182
-0.0100844
0.0859121
0.0856382
0.0850197
0.0841526
0.0831447
0.0819978
0.0806381
0.0790096
0.0770629
0.074755
0.0720542
0.0689435
0.0654196
0.0614862
0.0571422
0.0523598
0.0470713
0.0412136
0.0348203
0.0279934
0.0205699
0.0118583
0.0016308
0.0804047
0.0800636
0.0794705
0.0787882
0.0779955
0.0769836
0.0757215
0.0741979
0.0724108
0.0703489
0.0679862
0.0652867
0.0622151
0.058752
0.0549001
0.0506689
0.0460495
0.041028
0.0356313
0.0299089
0.0237575
0.0167831
0.0088415
0.0744122
0.0741902
0.0738054
0.0732596
0.0724838
0.0714574
0.0702023
0.0687343
0.067066
0.0651969
0.0631073
0.0607604
0.0581113
0.0551237
0.0517844
0.0480993
0.0440777
0.0397341
0.0351076
0.0302415
0.0250827
0.0194036
0.0130976
0.0681008
0.0679939
0.0677665
0.0672805
0.0665144
0.0655518
0.0644013
0.0630728
0.0615711
0.0598928
0.0580266
0.0559496
0.053631
0.0510416
0.048164
0.044994
0.0415354
0.0378042
0.0338412
0.0296918
0.0253391
0.0206476
0.0155286
0.0617977
0.0616663
0.0613702
0.0608902
0.0602425
0.0594485
0.0584941
0.0573766
0.0560905
0.0546298
0.0529883
0.0511558
0.0491178
0.0468596
0.0443721
0.041652
0.0386992
0.0355229
0.0321526
0.0286249
0.0249366
0.0210015
0.0167528
0.0553583
0.0552013
0.054866
0.0544486
0.0539403
0.0532805
0.0524677
0.0515037
0.0503914
0.049135
0.0477345
0.0461816
0.044462
0.0425608
0.0404672
0.0381763
0.0356861
0.0330004
0.030139
0.0271304
0.0239772
0.0206238
0.0170377
0.0486411
0.0485393
0.0483339
0.0480357
0.0476079
0.0470232
0.0462995
0.0454484
0.044485
0.0434232
0.0422653
0.0409995
0.0396047
0.0380583
0.0363426
0.0344472
0.0323672
0.030104
0.0276725
0.0250992
0.0223947
0.0195296
0.0165066
0.0418201
0.0417641
0.0416608
0.0414141
0.0410247
0.0405254
0.0399266
0.0392363
0.0384641
0.0376149
0.0366847
0.0356607
0.0345239
0.0332548
0.0318377
0.0302632
0.0285275
0.0266322
0.0245899
0.0224262
0.0201561
0.0177677
0.0152829
0.0351556
0.0351016
0.0349603
0.0346944
0.0343524
0.033959
0.0335056
0.0329895
0.0324055
0.0317438
0.0309943
0.0301479
0.0291961
0.0281306
0.0269446
0.0256352
0.0242025
0.0226497
0.0209877
0.0192381
0.0174148
0.0155112
0.0135482
0.0284657
0.0284018
0.0282237
0.0279966
0.0277469
0.0274613
0.0271284
0.0267392
0.0262824
0.0257472
0.0251271
0.0244208
0.0236293
0.0227534
0.0217927
0.0207475
0.0196191
0.0184105
0.0171293
0.0157908
0.0144042
0.012962
0.0114755
0.0215836
0.0215287
0.0214124
0.0212928
0.0211459
0.0209533
0.0207139
0.0204201
0.0200625
0.0196358
0.0191406
0.0185812
0.0179644
0.0172959
0.0165785
0.0158127
0.0149976
0.0141326
0.0132198
0.0122667
0.0112767
0.0102408
0.00916458
0.0146177
0.0146026
0.0145809
0.0145391
0.014455
0.0143292
0.0141686
0.0139716
0.0137318
0.0134446
0.0131103
0.012734
0.0123241
0.0118879
0.0114294
0.0109478
0.0104392
0.00989883
0.00932349
0.00871379
0.0080684
0.00737864
0.00665188
0.00766174
0.00768424
0.00770715
0.0076845
0.00763647
0.00757277
0.00749885
0.00741498
0.00731615
0.00719479
0.00704702
0.0068758
0.00668878
0.00649325
0.00629238
0.0060844
0.00586385
0.00562352
0.00535673
0.00505886
0.00472485
0.00434741
0.00393743
0.000495374
0.000489506
0.000497651
0.000478621
0.000476377
0.00049705
0.000538804
0.000592893
0.000649132
0.000699726
0.000743084
0.000783915
0.000829171
0.000883181
0.00094531
0.00101064
0.00107185
0.00112066
0.00114903
0.00115017
0.00111781
0.00104677
0.000948325
-0.00692574
-0.00698712
-0.00699449
-0.00699506
-0.006947
-0.00684623
-0.00669513
-0.00650853
-0.00630209
-0.00608416
-0.0058541
-0.00560635
-0.00533604
-0.00504252
-0.00472971
-0.00440444
-0.00407464
-0.00374838
-0.00343358
-0.00313736
-0.00286592
-0.00262325
-0.00240106
-0.014446
-0.0144728
-0.0144593
-0.0144227
-0.014315
-0.0141383
-0.0138969
-0.0136035
-0.0132701
-0.0129029
-0.0125018
-0.0120644
-0.01159
-0.0110811
-0.0105432
-0.0099834
-0.00940917
-0.00882779
-0.00824596
-0.00766968
-0.00710398
-0.00655191
-0.00600938
-0.0220707
-0.0224079
-0.0224253
-0.0223497
-0.0221642
-0.0218907
-0.0215395
-0.0211185
-0.0206333
-0.0200882
-0.0194877
-0.0188366
-0.0181407
-0.0174056
-0.0166369
-0.0158394
-0.0150181
-0.0141777
-0.013323
-0.0124592
-0.0115914
-0.0107244
-0.00986164
1333.5
1612.38
1590.3
1213.22
1815.84
1674.62
1555.5
1266.31
1867.71
1653.95
1497
1265.04
1892.86
1678.02
1479.67
1249.09
1881.13
1660.07
1421.88
1064.62
1846.96
1612.04
1262.39
384.05
1797.75
1526.55
474.774
12.0913
1727.19
744.253
20.0848
0.817253
1448.82
135.764
1.53396
-1.06431
289.584
2.25219
-0.767138
-1.09436
14.3493
-0.348863
-0.868873
-0.931887
1.56715
-0.442343
-0.712213
-0.797556
-0.0871881
-0.328655
-0.558081
-0.67396
-0.194226
-0.236478
-0.471589
-0.587266
-0.275878
2.35621
-0.45441
-0.535387
0.333924
6.08255
-0.482516
-0.505897
2.81484
6.16554
-0.531797
-0.489098
3.6397
5.8874
-0.559152
-0.471216
-0.0313795
2.486
-0.533333
-0.435963
-0.616756
-0.295681
-0.441049
-0.377594
-0.370254
-0.384597
-0.314763
-0.308406
-0.204681
-0.224497
-0.222723
-0.245969
-0.118069
-0.147203
-0.168389
-0.196257
-0.0681219
-0.10148
-0.133967
-0.157734
-0.0386272
-0.070702
-0.10266
-0.126275
-0.0203691
-0.0494673
-0.0782491
-0.100556
-0.00868125
-0.0342752
-0.0593849
-0.0797867
-0.00104503
-0.0230687
-0.044755
-0.0630869
0.00393291
-0.0147968
-0.0333949
-0.049651
0.00709915
-0.00872722
-0.0245889
-0.0388328
0.00893727
-0.00434801
-0.0177913
-0.0301313
0.00975696
-0.00128836
-0.012588
-0.0231622
0.00978758
0.000732921
-0.00865675
-0.0176057
0.00921429
0.00193312
-0.00574513
-0.0132009
0.00817584
0.00247655
-0.0036592
-0.00974227
0.00676126
0.00248353
-0.00224935
-0.00706466
0.00503173
0.00204463
-0.00140001
-0.00503644
0.00303055
0.00123076
-0.00102134
-0.00355406
0.000733423
6.77415e-05
-0.00105352
-0.00253713
-0.00190555
-0.00145325
-0.00146968
-0.0019304
-0.00480156
-0.0032664
-0.00221147
-0.00167405
-0.00795769
-0.00533441
-0.003213
-0.0016904
722.938
649.956
659.761
624.323
514.144
211.642
6.04686
0.898865
0.0176135
-0.233849
-0.991917
-1.52822
-0.999196
0.173897
0.9782
1.35388
1.49696
1.54032
1.54929
934.907
789.862
743.081
570.328
148.078
4.69785
0.702411
-0.135617
-0.225785
-0.337066
-0.725257
-0.926657
-0.550742
0.160041
0.725143
1.06663
1.2412
1.32002
1.349
1011.19
860.553
609.814
114.77
3.83647
0.153338
-0.348274
-0.371971
-0.316243
-0.387989
-0.549877
-0.586111
-0.308137
0.161055
0.569037
0.857175
1.02983
1.12163
1.16042
989.454
556.357
36.7961
2.27054
-0.185086
-0.576255
-0.558902
-0.455987
-0.376307
-0.390463
-0.436416
-0.394026
-0.174054
0.15477
0.463084
0.699066
0.856382
0.94838
0.990121
405.75
12.0034
1.31639
-0.623088
-0.693736
-0.727907
-0.613047
-0.487888
-0.405131
-0.378486
-0.360087
-0.281526
-0.100821
0.14362
0.382394
0.575842
0.713819
0.799563
0.840249
11.7498
0.761846
-0.931069
-0.957702
-0.887148
-0.756516
-0.621857
-0.499193
-0.413306
-0.360157
-0.30682
-0.214008
-0.0613652
0.129205
0.317985
0.477667
0.596019
0.67269
0.71039
0.542426
-1.098
-1.12576
-1.02998
-0.886278
-0.743212
-0.610034
-0.495438
-0.408506
-0.339865
-0.269028
-0.172853
-0.0412963
0.112547
0.264896
0.396823
0.497982
0.565045
0.598942
-1.15774
-1.21347
-1.12237
-0.994179
-0.847151
-0.709272
-0.586766
-0.481827
-0.395569
-0.319867
-0.241797
-0.147739
-0.0328764
0.0946079
0.219873
0.329672
0.415637
0.473646
0.503629
-1.21517
-1.15559
-1.04788
-0.920162
-0.788185
-0.667114
-0.558173
-0.462146
-0.378283
-0.300861
-0.22153
-0.132357
-0.0312254
0.07647
0.181111
0.273271
0.346244
0.396137
0.422198
-1.09209
-1.03779
-0.942765
-0.835069
-0.725831
-0.622463
-0.526363
-0.438732
-0.358834
-0.282901
-0.205735
-0.122763
-0.0332427
0.0590221
0.147522
0.225493
0.287557
0.330328
0.352757
-0.948265
-0.907408
-0.837526
-0.754265
-0.665404
-0.577317
-0.492727
-0.413186
-0.338336
-0.265894
-0.192802
-0.116525
-0.0370508
0.0427886
0.118366
0.184768
0.237736
0.274369
0.293578
-0.819157
-0.793763
-0.745617
-0.680828
-0.607998
-0.532818
-0.458467
-0.386664
-0.317486
-0.249716
-0.181692
-0.112164
-0.041534
0.0280198
0.0930575
0.149933
0.195306
0.226721
0.243158
-0.711472
-0.700095
-0.666186
-0.614469
-0.554171
-0.489776
-0.424478
-0.359999
-0.29675
-0.234253
-0.171754
-0.108796
-0.0460246
0.0148308
0.0711369
0.120109
0.159126
0.186138
0.200223
-0.626289
-0.622558
-0.596797
-0.55472
-0.504149
-0.448737
-0.391406
-0.333772
-0.276442
-0.219429
-0.162569
-0.105873
-0.0501103
0.00328587
0.0522649
0.0946278
0.128306
0.151607
0.163706
-0.56138
-0.558252
-0.536227
-0.501005
-0.457916
-0.410008
-0.359673
-0.308361
-0.256765
-0.205192
-0.153852
-0.103023
-0.0535239
-0.00658293
0.036171
0.072957
0.102125
0.122284
0.1327
-0.511838
-0.504312
-0.483142
-0.452542
-0.415273
-0.373675
-0.329497
-0.283976
-0.237819
-0.191485
-0.145403
-0.100005
-0.0561093
-0.014797
0.0226003
0.0546378
0.0799682
0.0974503
0.106429
-0.471764
-0.45737
-0.435733
-0.40838
-0.375846
-0.339653
-0.300943
-0.260712
-0.219641
-0.178258
-0.137102
-0.0966961
-0.0578245
-0.0214554
0.0112944
0.0392485
0.0612911
0.076477
0.0842197
-0.434136
-0.413919
-0.392116
-0.367552
-0.339183
-0.307769
-0.273981
-0.238595
-0.202247
-0.165492
-0.128907
-0.0930697
-0.0587169
-0.026715
0.00198455
0.0264021
0.0456105
0.0588168
0.0654934
-0.392583
-0.37106
-0.350795
-0.329294
-0.304899
-0.277857
-0.248561
-0.217634
-0.18566
-0.153203
-0.120837
-0.0891656
-0.0588765
-0.0307451
-0.00559173
0.0157511
0.0325054
0.0439989
0.0497558
-0.344961
-0.327626
-0.311039
-0.293197
-0.27276
-0.24981
-0.224657
-0.197842
-0.169907
-0.141417
-0.112927
-0.0850417
-0.0584007
-0.0337025
-0.0116652
0.00699431
0.0216159
0.0316257
0.0365885
-0.29418
-0.284523
-0.272973
-0.259231
-0.242701
-0.223598
-0.202266
-0.179232
-0.155007
-0.13015
-0.1052
-0.0807426
-0.0573726
-0.0357217
-0.01643
-0.000121427
0.0126396
0.0213621
0.0256381
-0.24589
-0.243747
-0.237284
-0.227614
-0.214779
-0.199233
-0.181395
-0.161806
-0.140961
-0.119406
-0.0976681
-0.0762999
-0.055859
-0.0369173
-0.0200517
-0.00581018
0.00532169
0.0129235
0.0166036
-0.204013
-0.207006
-0.204707
-0.198617
-0.189089
-0.176741
-0.162044
-0.145552
-0.127755
-0.109181
-0.0903374
-0.0717452
-0.0539232
-0.0373939
-0.0226775
-0.0102586
-0.000557567
0.00606424
0.00922563
-0.168998
-0.174881
-0.175612
-0.172401
-0.165689
-0.156126
-0.144199
-0.130456
-0.115379
-0.0994742
-0.0832263
-0.0671198
-0.0516359
-0.0372544
-0.0244438
-0.0136346
-0.0051923
0.000569631
0.00327769
-0.139534
-0.147106
-0.149953
-0.148958
-0.14456
-0.13736
-0.127834
-0.116501
-0.103831
-0.0903012
-0.0763665
-0.062476
-0.049074
-0.036601
-0.0254792
-0.0160913
-0.00875701
-0.00375123
-0.00144097
-0.114633
-0.123183
-0.127476
-0.128149
-0.125609
-0.120377
-0.112904
-0.103667
-0.0931116
-0.0816797
-0.0697943
-0.0578693
-0.0463142
-0.0355317
-0.0259029
-0.0177683
-0.0114095
-0.00706991
-0.00510968
-0.0937323
-0.102682
-0.107892
-0.10978
-0.1087
-0.105087
-0.0993513
-0.0919209
-0.083209
-0.0736186
-0.0635379
-0.0533475
-0.0434242
-0.0341348
-0.0258225
-0.0187917
-0.0132924
-0.00954058
-0.00788816
-0.0763131
-0.0852205
-0.0909143
-0.0936403
-0.0936789
-0.0913777
-0.0870964
-0.0812114
-0.0740947
-0.0661099
-0.0576102
-0.0489446
-0.0404584
-0.0324847
-0.0253324
-0.0192739
-0.0145322
-0.0112994
-0.00991647
-0.0618458
-0.0704115
-0.0762598
-0.0795154
-0.0803809
-0.0791235
-0.0760451
-0.0714689
-0.0657224
-0.0591292
-0.0520088
-0.04468
-0.0374575
-0.0306427
-0.0245126
-0.0193115
-0.0152382
-0.012463
-0.0113142
-0.0498683
-0.0578867
-0.0636494
-0.0671901
-0.0686389
-0.0681921
-0.0660935
-0.0626138
-0.0580349
-0.0526417
-0.0467213
-0.0405628
-0.034451
-0.0286571
-0.0234287
-0.0189842
-0.0155007
-0.0131276
-0.0121803
-0.0399415
-0.0473131
-0.0528232
-0.0564587
-0.0582896
-0.058453
-0.057138
-0.0545656
-0.0509736
-0.0466101
-0.0417306
-0.0365949
-0.0314587
-0.0265639
-0.022131
-0.0183542
-0.0153904
-0.0133695
-0.0125944
-0.0317628
-0.0384064
-0.0435472
-0.0471312
-0.0491808
-0.0497842
-0.0490822
-0.0472498
-0.0444842
-0.0409985
-0.037018
-0.0327735
-0.0284919
-0.0243876
-0.0206556
-0.0174676
-0.0149615
-0.0132486
-0.0126204
-0.0250396
-0.0309191
-0.0356132
-0.039036
-0.0411736
-0.0420748
-0.0418387
-0.0405994
-0.0385175
-0.0357738
-0.0325644
-0.0290918
-0.0255556
-0.022144
-0.0190281
-0.0163587
-0.0142557
-0.0128126
-0.0123105
-0.0195246
-0.0246345
-0.0288361
-0.0320182
-0.0341414
-0.0352231
-0.0353271
-0.0345525
-0.0330276
-0.030904
-0.0283499
-0.025541
-0.0226511
-0.0198441
-0.0172687
-0.0150557
-0.013308
-0.0121021
-0.0117096
-0.0150164
-0.0193642
-0.023053
-0.0259386
-0.027968
-0.0291339
-0.0294711
-0.0290498
-0.0279703
-0.0263578
-0.024355
-0.0221125
-0.0197799
-0.0174987
-0.0153966
-0.0135851
-0.012151
-0.0111545
-0.0108585
-0.0113509
-0.0149775
-0.0181238
-0.0206717
-0.0225456
-0.023717
-0.0241975
-0.0240337
-0.0233025
-0.0221057
-0.0205624
-0.0188001
-0.0169464
-0.0151215
-0.0134331
-0.0119745
-0.0108173
-0.0100063
-0.00979606
-0.00838748
-0.0113001
-0.0139196
-0.0161053
-0.0177761
-0.0188887
-0.0194373
-0.01945
-0.0189842
-0.0181209
-0.0169579
-0.0156015
-0.0141585
-0.0127291
-0.0114021
-0.0102534
-0.00934055
-0.00869343
-0.00855934
-0.00601805
-0.00824846
-0.0103376
-0.0121423
-0.0135723
-0.0145733
-0.0151275
-0.0152488
-0.0149785
-0.0143794
-0.0135299
-0.0125165
-0.0114262
-0.0103399
-0.00932848
-0.00845149
-0.00775366
-0.00725075
-0.00718344
-0.00415258
-0.00572631
-0.00728996
-0.00870076
-0.00985918
-0.0107044
-0.0112115
-0.0113845
-0.0112514
-0.010859
-0.0102677
-0.00954493
-0.0087584
-0.00797055
-0.00723507
-0.00659627
-0.00608746
-0.00571066
-0.00570007
-0.0027188
-0.0036549
-0.00470421
-0.00571348
-0.00657432
-0.00722531
-0.00763983
-0.00781607
-0.00777142
-0.00753841
-0.0071602
-0.00668531
-0.0061623
-0.00563548
-0.00514221
-0.00471285
-0.00437072
-0.00410463
-0.00413735
-0.00164998
-0.00196489
-0.00252069
-0.00312453
-0.00366233
-0.0040825
-0.00436319
-0.00450041
-0.0045032
-0.00439065
-0.00418878
-0.00392702
-0.00363466
-0.00333811
-0.00305928
-0.0028156
-0.00262167
-0.00245414
-0.00251408
-0.000870429
-0.00060202
-0.000708767
-0.000904013
-0.00108967
-0.00124228
-0.00135126
-0.00141336
-0.00143043
-0.00140819
-0.00135501
-0.00128056
-0.00119447
-0.00110542
-0.00102053
-0.000945272
-0.000886367
-0.000825852
-0.000862095
)
;

boundaryField
{
    leftWall
    {
        type            fixedFluxPressure;
        gradient        uniform 0;
        value           nonuniform List<scalar> 
50
(
2332.04
2331.58
2330.65
2329.24
2327.33
2324.89
2321.91
2318.39
2311.93
2300.15
2285.31
2267.44
2246.75
2223.66
2198.77
2172.68
2146.14
2120.33
2095.25
2064.83
1387.31
84.0369
0.159218
0.156524
0.141041
0.128653
0.120009
0.113496
0.108081
0.103635
0.0995383
0.095431
0.0909913
0.0859121
0.0804047
0.0744122
0.0681008
0.0617977
0.0553583
0.0486411
0.0418201
0.0351556
0.0284657
0.0215836
0.0146177
0.00766174
0.000495374
-0.00692574
-0.014446
-0.0220707
)
;
    }
    rightWall
    {
        type            fixedFluxPressure;
        gradient        uniform 0;
        value           nonuniform List<scalar> 
50
(
2.1153
2.10007
2.06624
2.01558
1.95067
1.87415
1.78875
1.69728
1.54929
1.349
1.16042
0.990121
0.840249
0.71039
0.598942
0.503629
0.422198
0.352757
0.293578
0.243158
0.200223
0.163706
0.1327
0.106429
0.0842197
0.0654934
0.0497558
0.0365885
0.0256381
0.0166036
0.00922563
0.00327769
-0.00144097
-0.00510968
-0.00788816
-0.00991647
-0.0113142
-0.0121803
-0.0125944
-0.0126204
-0.0123105
-0.0117096
-0.0108585
-0.00979606
-0.00855934
-0.00718344
-0.00570007
-0.00413735
-0.00251408
-0.000862095
)
;
    }
    lowerWall
    {
        type            fixedFluxPressure;
        gradient        uniform 0;
        value           nonuniform List<scalar> 
62
(
2332.04
2332.4
2332.34
2332.04
2331.66
2331.27
2330.88
2330.52
2330.26
2330.17
2330.3
2330.77
2331.66
2333.14
2335.28
2338.08
2341.46
2345.33
2349.49
2353.63
2357.34
2360.21
2361.8
2361.8
2363.07
2361.56
2356.96
2348.37
2332.82
2298.13
2227.46
1333.5
1612.38
1590.3
1213.22
149.713
149.723
149.712
149.672
149.617
149.568
149.541
411.075
149.713
149.702
149.61
149.142
148.253
148.82
162.492
217.963
265.514
146.067
38.1708
4.05521
3.22976
3.74803
3.39749
2.89157
2.47877
2.22859
2.1153
)
;
    }
    atmosphere
    {
        type            totalPressure;
        rho             rho;
        psi             none;
        gamma           1;
        p0              uniform 0;
        value           nonuniform List<scalar> 
46
(
-0.0252789
-0.0271444
-0.0269497
-0.0267612
-0.0264852
-0.0261317
-0.0257019
-0.0251953
-0.0246129
-0.0239585
-0.0232386
-0.0224613
-0.0216349
-0.020767
-0.0198637
-0.01893
-0.0179698
-0.0169864
-0.0159837
-0.014966
-0.0139389
-0.0129092
-0.0118832
-0.00964308
-0.00646596
-0.00381582
-0.00181823
-0.000619293
-7.09853e-05
0
0
0
0
0
0
0
0
0
0
0
0
0
0
0
0
0
)
;
    }
    defaultFaces
    {
        type            empty;
    }
}


// ************************************************************************* //
