/*--------------------------------*- C++ -*----------------------------------*\
| =========                 |                                                 |
| \\      /  F ield         | OpenFOAM: The Open Source CFD Toolbox           |
|  \\    /   O peration     | Version:  2206                                  |
|   \\  /    A nd           | Website:  www.openfoam.com                      |
|    \\/     M anipulation  |                                                 |
\*---------------------------------------------------------------------------*/
FoamFile
{
    version     2.0;
    format      ascii;
    arch        "LSB;label=32;scalar=64";
    class       surfaceScalarField;
    location    "0.175";
    object      phi;
}
// * * * * * * * * * * * * * * * * * * * * * * * * * * * * * * * * * * * * * //

dimensions      [0 3 -1 0 0 0 0];

oriented        oriented;

internalField   nonuniform List<scalar> 
4432
(
1.17049e-06
-1.17049e-06
2.85863e-06
-1.68815e-06
4.46712e-06
-1.6085e-06
5.95849e-06
-1.49138e-06
7.3809e-06
-1.42243e-06
8.75135e-06
-1.37046e-06
1.00624e-05
-1.31109e-06
1.1298e-05
-1.23561e-06
1.24386e-05
-1.14061e-06
1.34614e-05
-1.02279e-06
1.43388e-05
-8.77405e-07
1.50357e-05
-6.96832e-07
1.55032e-05
-4.67486e-07
1.5669e-05
-1.65816e-07
1.54324e-05
2.36535e-07
1.46815e-05
7.50998e-07
1.33779e-05
1.30359e-06
1.15475e-05
1.83039e-06
9.29401e-06
2.25344e-06
6.81127e-06
2.48275e-06
4.32105e-06
2.49022e-06
2.0302e-06
2.29085e-06
2.0302e-06
1.17897e-06
-2.34948e-06
2.88162e-06
-3.39082e-06
4.51016e-06
-3.23707e-06
6.02114e-06
-3.00237e-06
7.46179e-06
-2.8631e-06
8.85119e-06
-2.75987e-06
1.01834e-05
-2.64327e-06
1.14429e-05
-2.49513e-06
1.26109e-05
-2.30866e-06
1.36657e-05
-2.07755e-06
1.45816e-05
-1.79335e-06
1.53302e-05
-1.44539e-06
1.58852e-05
-1.02244e-06
1.6238e-05
-5.18639e-07
1.63721e-05
1.02475e-07
1.63011e-05
8.21899e-07
1.59003e-05
1.70441e-06
1.50065e-05
2.72421e-06
1.34455e-05
3.81445e-06
1.10809e-05
4.8473e-06
7.91375e-06
5.65741e-06
4.11076e-06
6.09385e-06
6.14095e-06
1.18017e-06
-3.52966e-06
2.90042e-06
-5.11108e-06
4.55183e-06
-4.8885e-06
6.08427e-06
-4.53481e-06
7.54546e-06
-4.3243e-06
8.95741e-06
-4.17182e-06
1.03164e-05
-4.00224e-06
1.16083e-05
-3.78703e-06
1.28155e-05
-3.51587e-06
1.39178e-05
-3.17982e-06
1.48915e-05
-2.76708e-06
1.57091e-05
-2.26294e-06
1.6337e-05
-1.65033e-06
1.67289e-05
-9.10539e-07
1.6855e-05
-2.37072e-08
1.66614e-05
1.01555e-06
1.61306e-05
2.23521e-06
1.5208e-05
3.64678e-06
1.37774e-05
5.24503e-06
1.16509e-05
6.97385e-06
8.63309e-06
8.67522e-06
4.65705e-06
1.00699e-05
1.0798e-05
1.18125e-06
-4.71092e-06
2.92911e-06
-6.85895e-06
4.61496e-06
-6.57435e-06
6.1788e-06
-6.09865e-06
7.67002e-06
-5.81552e-06
9.11505e-06
-5.61684e-06
1.05132e-05
-5.40042e-06
1.18524e-05
-5.1262e-06
1.31166e-05
-4.78006e-06
1.42874e-05
-4.35063e-06
1.53431e-05
-3.82281e-06
1.62574e-05
-3.17725e-06
1.69978e-05
-2.39068e-06
1.75242e-05
-1.4369e-06
1.77858e-05
-2.85358e-07
1.77112e-05
1.09019e-06
1.72268e-05
2.71959e-06
1.6253e-05
4.62062e-06
1.46977e-05
6.80028e-06
1.24307e-05
9.24083e-06
9.26615e-06
1.18398e-05
5.04078e-06
1.42952e-05
1.58388e-05
1.1826e-06
-5.89352e-06
2.96657e-06
-8.64291e-06
4.69731e-06
-8.30507e-06
6.30173e-06
-7.70307e-06
7.83162e-06
-7.34539e-06
9.3192e-06
-7.10441e-06
1.07678e-05
-6.84904e-06
1.21677e-05
-6.5261e-06
1.3505e-05
-6.11737e-06
1.47638e-05
-5.60935e-06
1.59249e-05
-4.98397e-06
1.69652e-05
-4.2175e-06
1.78551e-05
-3.28059e-06
1.85564e-05
-2.13823e-06
1.90196e-05
-7.48505e-07
1.91747e-05
9.35087e-07
1.89267e-05
2.96763e-06
1.81485e-05
5.39876e-06
1.66826e-05
8.2662e-06
1.43468e-05
1.15766e-05
1.09284e-05
1.52583e-05
6.16151e-06
1.90621e-05
2.20003e-05
1.18615e-06
-7.07966e-06
3.01266e-06
-1.04694e-05
4.79596e-06
-1.00884e-05
6.44856e-06
-9.35565e-06
8.02489e-06
-8.92172e-06
9.56381e-06
-8.64332e-06
1.10733e-05
-8.35853e-06
1.25465e-05
-7.99931e-06
1.39722e-05
-7.54302e-06
1.53372e-05
-6.97441e-06
1.66263e-05
-6.27307e-06
1.78203e-05
-5.41147e-06
1.88944e-05
-4.35468e-06
1.98156e-05
-3.0594e-06
2.0539e-05
-1.47196e-06
2.10018e-05
4.72351e-07
2.11102e-05
2.85924e-06
2.07174e-05
5.79159e-06
1.95997e-05
9.38388e-06
1.74326e-05
1.37437e-05
1.37586e-05
1.89323e-05
7.9769e-06
2.48438e-05
2.99772e-05
1.1937e-06
-8.27335e-06
3.06643e-06
-1.23421e-05
4.90525e-06
-1.19272e-05
6.61015e-06
-1.10605e-05
8.23848e-06
-1.055e-05
9.8355e-06
-1.02403e-05
1.1414e-05
-9.93708e-06
1.29707e-05
-9.55595e-06
1.44973e-05
-9.0697e-06
1.59849e-05
-8.46197e-06
1.74228e-05
-7.71098e-06
1.87978e-05
-6.7865e-06
2.00923e-05
-5.64913e-06
2.12817e-05
-4.24878e-06
2.23313e-05
-2.5216e-06
2.31879e-05
-3.84303e-07
2.37787e-05
2.26849e-06
2.39658e-05
5.60454e-06
2.35092e-05
9.8404e-06
2.20559e-05
1.51971e-05
1.88711e-05
2.21171e-05
1.31945e-05
3.05205e-05
4.31717e-05
1.20755e-06
-9.48089e-06
3.1251e-06
-1.42597e-05
5.01917e-06
-1.38212e-05
6.77799e-06
-1.28193e-05
8.46106e-06
-1.22331e-05
1.01199e-05
-1.18991e-05
1.1772e-05
-1.15892e-05
1.34176e-05
-1.12016e-05
1.50524e-05
-1.07045e-05
1.66719e-05
-1.00815e-05
1.82718e-05
-9.31087e-06
1.98469e-05
-8.36155e-06
2.139e-05
-7.19227e-06
2.28903e-05
-5.74909e-06
2.43295e-05
-3.96079e-06
2.56774e-05
-1.73213e-06
2.68876e-05
1.0583e-06
2.78632e-05
4.6289e-06
2.83623e-05
9.34134e-06
2.79354e-05
1.5624e-05
2.52043e-05
2.48481e-05
1.81676e-05
3.75571e-05
6.13393e-05
-7.71048e-06
7.71048e-06
-3.6458e-05
2.87465e-05
-8.6794e-05
5.03354e-05
-0.000138034
5.12403e-05
-0.000161075
2.30416e-05
-0.00013251
-2.85649e-05
-5.73021e-05
-7.5208e-05
7.79633e-05
-0.000135265
0.000207429
-0.000129466
0.000288462
-8.10331e-05
0.000300438
-1.19757e-05
0.000222557
7.78814e-05
0.000136223
8.63345e-05
8.73728e-05
4.88496e-05
6.69425e-05
2.04296e-05
4.85332e-05
1.84087e-05
2.93662e-05
1.91674e-05
1.36083e-05
1.57584e-05
1.36079e-05
-3.34166e-05
4.1127e-05
-7.1257e-05
6.65878e-05
-0.000102402
8.14807e-05
-9.84997e-05
4.73382e-05
-5.54741e-05
-1.99842e-05
3.73125e-06
-8.77703e-05
9.12706e-05
-0.000162747
0.000154548
-0.000198542
0.000189323
-0.000164241
0.000221986
-0.000113697
0.000271233
-6.12225e-05
0.000289898
5.92158e-05
0.000253668
0.000122564
0.000183091
0.000119427
0.000110302
9.32191e-05
6.17745e-05
6.69372e-05
3.41927e-05
4.67496e-05
1.55076e-05
3.44431e-05
2.91154e-05
-3.76397e-05
7.87662e-05
-5.53229e-05
8.42718e-05
-3.83454e-05
6.45034e-05
1.86778e-05
-9.68443e-06
7.43637e-05
-7.56698e-05
0.000126313
-0.000139719
0.000159428
-0.000195863
0.000171361
-0.000210476
0.000175371
-0.000168251
0.000183232
-0.000121558
0.000235206
-0.000113196
0.000293932
4.89488e-07
0.000274805
0.000141691
0.000191283
0.000202949
0.000107156
0.000177346
5.80769e-05
0.000116016
3.19919e-05
7.28342e-05
1.45692e-05
5.18654e-05
4.36846e-05
-2.96476e-05
0.000108413
-2.22214e-05
7.68451e-05
2.79937e-05
1.42881e-05
8.15473e-05
-6.32379e-05
0.000126912
-0.000121035
0.000158728
-0.000171535
0.000171096
-0.000208231
0.000169706
-0.000209086
0.000161665
-0.00016021
0.000154681
-0.000114574
0.000179006
-0.000137521
0.000223408
-4.39124e-05
0.000217618
0.000147481
0.000149778
0.000270788
8.49412e-05
0.000242184
4.97156e-05
0.000151242
2.89466e-05
9.36036e-05
1.34432e-05
6.7369e-05
5.71279e-05
-2.18656e-05
0.000130279
1.67611e-05
3.82175e-05
7.76225e-05
-4.65729e-05
0.000122655
-0.00010827
0.000151423
-0.000149803
0.00016776
-0.000187872
0.000170812
-0.000211282
0.000166468
-0.000204742
0.000154237
-0.000147979
0.000135155
-9.5492e-05
0.000132468
-0.000134834
0.000140791
-5.22355e-05
0.000129606
0.000158666
9.2191e-05
0.000308203
6.08914e-05
0.000273483
4.14302e-05
0.000170704
2.57247e-05
0.000109309
1.22411e-05
8.0853e-05
6.93693e-05
6.56831e-06
0.000123711
7.71662e-05
-3.23806e-05
0.000123353
-9.276e-05
0.000147978
-0.000132895
0.000163978
-0.000165803
0.000171053
-0.000194947
0.000169508
-0.000209737
0.000159532
-0.000194765
0.000139675
-0.000128122
0.000112302
-6.81189e-05
8.86875e-05
-0.000111219
7.10075e-05
-3.4556e-05
5.09836e-05
0.00017869
4.14435e-05
0.000317743
4.14071e-05
0.00027352
3.39385e-05
0.000178172
2.24299e-05
0.000120817
1.0947e-05
9.23357e-05
8.03166e-05
8.66921e-05
3.70188e-05
0.000123206
-6.88941e-05
0.000148983
-0.000118538
0.000163286
-0.000147198
0.000171039
-0.000173557
0.000173356
-0.000197264
0.000167337
-0.000203718
0.000148245
-0.000175673
0.000121164
-0.000101041
9.27538e-05
-3.97092e-05
5.9487e-05
-7.79518e-05
2.29676e-05
1.96283e-06
3.60997e-06
0.000198047
1.45495e-05
0.000306804
2.89167e-05
0.000259153
2.74983e-05
0.00017959
1.91863e-05
0.000129129
9.60479e-06
0.000101917
8.99216e-05
0.000114584
-7.75652e-05
0.000152066
-0.000106376
0.000165528
-0.000132
0.000171452
-0.000153122
0.000174846
-0.00017695
0.000173142
-0.00019556
0.000159183
-0.000189759
0.000130921
-0.000147412
9.83076e-05
-6.84275e-05
7.3876e-05
-1.52781e-05
3.22133e-05
-3.62896e-05
-1.30896e-05
4.72666e-05
-2.04138e-05
0.000205372
2.66981e-06
0.00028372
2.06969e-05
0.000241125
2.1965e-05
0.000178322
1.61166e-05
0.000134977
8.27303e-06
0.000109761
9.81947e-05
2.61787e-06
-1.20988e-05
6.88615e-06
-1.8528e-05
1.10832e-05
-1.80183e-05
1.49842e-05
-1.67203e-05
1.8744e-05
-1.59929e-05
2.24831e-05
-1.56383e-05
2.62475e-05
-1.53536e-05
3.0048e-05
-1.50021e-05
3.38882e-05
-1.45448e-05
3.77748e-05
-1.39682e-05
4.17197e-05
-1.32557e-05
4.57403e-05
-1.23822e-05
4.98615e-05
-1.13135e-05
5.41184e-05
-1.0006e-05
5.85626e-05
-8.40499e-06
6.32713e-05
-6.44083e-06
6.83615e-05
-4.0319e-06
7.41186e-05
-1.12822e-06
8.09339e-05
2.52609e-06
8.97217e-05
6.83619e-06
0.000102381
1.21889e-05
0.000123603
1.63346e-05
2.74622e-05
0.000157481
2.77106e-06
-1.48698e-05
7.22661e-06
-2.29835e-05
1.16044e-05
-2.23961e-05
1.57019e-05
-2.08178e-05
1.96946e-05
-1.99856e-05
2.37119e-05
-1.96556e-05
2.78058e-05
-1.94475e-05
3.1997e-05
-1.91932e-05
3.63036e-05
-1.88514e-05
4.07511e-05
-1.84157e-05
4.53747e-05
-1.78794e-05
5.02216e-05
-1.72292e-05
5.53553e-05
-1.64471e-05
6.08623e-05
-1.5513e-05
6.68637e-05
-1.44063e-05
7.35325e-05
-1.31097e-05
8.11135e-05
-1.16129e-05
8.99125e-05
-9.92713e-06
0.000100487
-8.04803e-06
0.000113427
-6.10396e-06
0.00012944
-3.824e-06
0.00014836
-2.58532e-06
2.06899e-06
0.000173753
2.97439e-06
-1.78442e-05
7.55662e-06
-2.75657e-05
1.20023e-05
-2.68419e-05
1.62049e-05
-2.50203e-05
2.03628e-05
-2.41435e-05
2.45925e-05
-2.38853e-05
2.89366e-05
-2.37915e-05
3.34171e-05
-2.36738e-05
3.80602e-05
-2.34945e-05
4.29008e-05
-2.32563e-05
4.79832e-05
-2.29618e-05
5.33621e-05
-2.26081e-05
5.91049e-05
-2.21899e-05
6.52942e-05
-2.17023e-05
7.20314e-05
-2.11436e-05
7.94386e-05
-2.05169e-05
8.76588e-05
-1.9833e-05
9.68483e-05
-1.91166e-05
0.0001072
-1.84002e-05
0.000118867
-1.77703e-05
0.000132295
-1.72522e-05
0.000147024
-1.73147e-05
-1.72855e-05
0.000166379
3.21847e-06
-2.10627e-05
7.83155e-06
-3.21788e-05
1.22187e-05
-3.12291e-05
1.6425e-05
-2.92266e-05
2.06631e-05
-2.83816e-05
2.50154e-05
-2.82375e-05
2.95027e-05
-2.82788e-05
3.41436e-05
-2.83147e-05
3.89676e-05
-2.83184e-05
4.40128e-05
-2.83015e-05
4.93243e-05
-2.82733e-05
5.4954e-05
-2.82378e-05
6.09614e-05
-2.81973e-05
6.74151e-05
-2.81561e-05
7.43927e-05
-2.81211e-05
8.19804e-05
-2.81046e-05
9.02719e-05
-2.81246e-05
9.93633e-05
-2.8208e-05
0.000109353
-2.83899e-05
0.00012031
-2.87269e-05
0.00013231
-2.92527e-05
0.000145135
-3.014e-05
-3.1119e-05
0.000158969
3.47287e-06
-2.45356e-05
8.00017e-06
-3.67061e-05
1.22071e-05
-3.5436e-05
1.63225e-05
-3.3342e-05
2.05496e-05
-3.26088e-05
2.4919e-05
-3.26069e-05
2.94262e-05
-3.2786e-05
3.40856e-05
-3.29742e-05
3.89283e-05
-3.31611e-05
4.39922e-05
-3.33654e-05
4.93189e-05
-3.36e-05
5.49536e-05
-3.38725e-05
6.09459e-05
-3.41896e-05
6.73499e-05
-3.45601e-05
7.42237e-05
-3.4995e-05
8.1628e-05
-3.5509e-05
8.96227e-05
-3.61192e-05
9.82629e-05
-3.68481e-05
0.000107592
-3.77189e-05
0.000117627
-3.87622e-05
0.000128372
-3.99975e-05
0.000139721
-4.14892e-05
-4.31062e-05
0.000151708
3.69847e-06
-2.8234e-05
8.01781e-06
-4.10255e-05
1.19471e-05
-3.93653e-05
1.58962e-05
-3.72911e-05
2.00244e-05
-3.67371e-05
2.43027e-05
-3.68852e-05
2.87063e-05
-3.71896e-05
3.32485e-05
-3.75164e-05
3.79609e-05
-3.78735e-05
4.28787e-05
-3.82831e-05
4.80381e-05
-3.87594e-05
5.34774e-05
-3.93118e-05
5.92377e-05
-3.995e-05
6.53632e-05
-4.06855e-05
7.19001e-05
-4.15319e-05
7.88962e-05
-4.2505e-05
8.63982e-05
-4.36213e-05
9.44513e-05
-4.49012e-05
0.000103091
-4.63584e-05
0.000112346
-4.80172e-05
0.000122229
-4.98809e-05
0.000132698
-5.19579e-05
-5.42073e-05
0.000143799
3.85703e-06
-3.20911e-05
7.85769e-06
-4.50261e-05
1.14479e-05
-4.29555e-05
1.51765e-05
-4.10197e-05
1.91246e-05
-4.06851e-05
2.32088e-05
-4.09694e-05
2.73957e-05
-4.13765e-05
3.17014e-05
-4.18221e-05
3.61557e-05
-4.23277e-05
4.07889e-05
-4.29163e-05
4.56309e-05
-4.36014e-05
5.07133e-05
-4.43942e-05
5.60704e-05
-4.5307e-05
6.17394e-05
-4.63545e-05
6.77605e-05
-4.75531e-05
7.41766e-05
-4.89211e-05
8.10321e-05
-5.04768e-05
8.83741e-05
-5.22432e-05
9.62461e-05
-5.42304e-05
0.000104705
-5.64759e-05
0.000113782
-5.89584e-05
0.000123518
-6.16933e-05
-6.48054e-05
0.000134116
3.92899e-06
-3.60201e-05
7.52425e-06
-4.86214e-05
1.07491e-05
-4.61803e-05
1.42198e-05
-4.44903e-05
1.79163e-05
-4.43817e-05
2.17187e-05
-4.47718e-05
2.5597e-05
-4.52548e-05
2.95698e-05
-4.57949e-05
3.36629e-05
-4.64209e-05
3.78994e-05
-4.71528e-05
4.23016e-05
-4.80036e-05
4.68934e-05
-4.8986e-05
5.17016e-05
-5.01153e-05
5.67564e-05
-5.14093e-05
6.20922e-05
-5.28889e-05
6.7748e-05
-5.45769e-05
7.37677e-05
-5.64964e-05
8.02029e-05
-5.86785e-05
8.7119e-05
-6.11465e-05
9.46016e-05
-6.39585e-05
0.000102701
-6.70576e-05
0.000111552
-7.05446e-05
-7.49793e-05
0.000121726
3.92676e-06
-3.99468e-05
7.0517e-06
-5.17464e-05
9.9063e-06
-4.9035e-05
1.30914e-05
-4.76754e-05
1.64773e-05
-4.77676e-05
1.99307e-05
-4.82251e-05
2.34328e-05
-4.87569e-05
2.70022e-05
-4.93643e-05
3.06564e-05
-5.00751e-05
3.44079e-05
-5.09043e-05
3.82686e-05
-5.18642e-05
4.22522e-05
-5.29696e-05
4.63728e-05
-5.42359e-05
5.06458e-05
-5.56823e-05
5.50925e-05
-5.73357e-05
5.97359e-05
-5.92203e-05
6.46037e-05
-6.13643e-05
6.97333e-05
-6.38081e-05
7.52102e-05
-6.66233e-05
8.11392e-05
-6.98875e-05
8.75844e-05
-7.35028e-05
9.48002e-05
-7.77604e-05
-8.46974e-05
0.000104518
3.88293e-06
-4.38298e-05
6.47192e-06
-5.43354e-05
8.95167e-06
-5.15147e-05
1.18252e-05
-5.05489e-05
1.4851e-05
-5.07935e-05
1.79039e-05
-5.1278e-05
2.09772e-05
-5.18302e-05
2.40845e-05
-5.24715e-05
2.72332e-05
-5.32238e-05
3.04228e-05
-5.40939e-05
3.3651e-05
-5.50924e-05
3.69189e-05
-5.62376e-05
4.02222e-05
-5.75391e-05
4.35562e-05
-5.90163e-05
4.6924e-05
-6.07035e-05
5.03221e-05
-6.26183e-05
5.37516e-05
-6.47938e-05
5.71999e-05
-6.72564e-05
6.07546e-05
-7.0178e-05
6.45029e-05
-7.36359e-05
6.81851e-05
-7.7185e-05
7.19493e-05
-8.15246e-05
-9.29115e-05
8.01634e-05
3.79518e-06
-4.7625e-05
5.75503e-06
-5.62952e-05
7.8319e-06
-5.35916e-05
1.03552e-05
-5.30722e-05
1.29655e-05
-5.34038e-05
1.55639e-05
-5.38764e-05
1.81535e-05
-5.44198e-05
2.07356e-05
-5.50537e-05
2.33079e-05
-5.57961e-05
2.5861e-05
-5.6647e-05
2.8379e-05
-5.76104e-05
3.08491e-05
-5.87077e-05
3.32571e-05
-5.99471e-05
3.55791e-05
-6.13382e-05
3.7808e-05
-6.29324e-05
3.99441e-05
-6.47543e-05
4.20188e-05
-6.68686e-05
4.39826e-05
-6.92202e-05
4.6032e-05
-7.22273e-05
4.85837e-05
-7.61876e-05
5.05474e-05
-7.91488e-05
4.97996e-05
-8.07767e-05
-9.86604e-05
5.55485e-05
3.88413e-06
-5.15091e-05
4.81343e-06
-5.72245e-05
6.38179e-06
-5.51599e-05
8.49461e-06
-5.5185e-05
1.06152e-05
-5.55243e-05
1.26859e-05
-5.59471e-05
1.47172e-05
-5.64511e-05
1.6693e-05
-5.70294e-05
1.86121e-05
-5.77152e-05
2.04702e-05
-5.85051e-05
2.22731e-05
-5.94132e-05
2.3948e-05
-6.03827e-05
2.55583e-05
-6.15573e-05
2.71171e-05
-6.2897e-05
2.86031e-05
-6.44184e-05
3.01618e-05
-6.6313e-05
3.19565e-05
-6.86633e-05
3.3725e-05
-7.09887e-05
3.59572e-05
-7.44595e-05
4.09515e-05
-8.11819e-05
4.62665e-05
-8.44638e-05
5.07363e-05
-8.52464e-05
-9.88725e-05
5.09484e-05
4.64715e-06
-5.61562e-05
3.45322e-06
-5.60306e-05
4.45719e-06
-5.61639e-05
6.21424e-06
-5.69421e-05
7.82774e-06
-5.71378e-05
9.34214e-06
-5.74615e-05
1.08224e-05
-5.79313e-05
1.2242e-05
-5.84491e-05
1.36092e-05
-5.90824e-05
1.48647e-05
-5.97607e-05
1.63309e-05
-6.08795e-05
1.77139e-05
-6.17658e-05
1.93146e-05
-6.31581e-05
2.15231e-05
-6.51056e-05
2.4525e-05
-6.74204e-05
2.86165e-05
-7.04045e-05
3.25813e-05
-7.26281e-05
3.94209e-05
-7.78281e-05
4.70652e-05
-8.21035e-05
5.43664e-05
-8.84829e-05
6.48238e-05
-9.49211e-05
7.72788e-05
-9.77012e-05
-0.000102943
8.13496e-05
4.74162e-06
-6.08978e-05
1.79834e-06
-5.30873e-05
2.80568e-06
-5.71712e-05
4.17087e-06
-5.83072e-05
5.41868e-06
-5.83856e-05
6.42664e-06
-5.84694e-05
7.30376e-06
-5.88085e-05
8.79098e-06
-5.99363e-05
1.05874e-05
-6.08788e-05
1.24456e-05
-6.16188e-05
1.54426e-05
-6.38761e-05
1.89182e-05
-6.52416e-05
2.30635e-05
-6.73038e-05
2.86095e-05
-7.06516e-05
3.4541e-05
-7.33517e-05
4.13895e-05
-7.7253e-05
5.00129e-05
-8.12516e-05
5.83958e-05
-8.62111e-05
6.71452e-05
-9.0852e-05
7.54464e-05
-9.67833e-05
8.28629e-05
-0.000102337
8.96505e-05
-0.000104489
-0.000101646
8.83535e-05
-2.28781e-06
-5.86096e-05
1.60887e-06
-5.69843e-05
3.32292e-06
-5.88856e-05
4.36916e-06
-5.93536e-05
5.70194e-06
-5.97181e-05
7.46171e-06
-6.02291e-05
9.82997e-06
-6.11769e-05
1.19543e-05
-6.20602e-05
1.43572e-05
-6.32822e-05
1.76521e-05
-6.49149e-05
2.08113e-05
-6.70359e-05
2.44962e-05
-6.89271e-05
2.88901e-05
-7.16987e-05
3.31617e-05
-7.49241e-05
3.80393e-05
-7.82292e-05
4.27961e-05
-8.20092e-05
4.81191e-05
-8.65742e-05
5.37016e-05
-9.17935e-05
6.0686e-05
-9.78364e-05
6.76617e-05
-0.000103759
7.26716e-05
-0.000107347
7.30622e-05
-0.00010488
-9.39574e-05
6.53736e-05
-1.32465e-06
-5.72856e-05
1.55634e-06
-5.98656e-05
3.10784e-06
-6.04373e-05
4.22416e-06
-6.04701e-05
5.44866e-06
-6.09426e-05
6.78398e-06
-6.15654e-05
8.10722e-06
-6.24998e-05
9.71469e-06
-6.36676e-05
1.13949e-05
-6.49623e-05
1.31331e-05
-6.66535e-05
1.4637e-05
-6.85404e-05
1.65921e-05
-7.08825e-05
1.83848e-05
-7.34913e-05
1.98682e-05
-7.64073e-05
2.13298e-05
-7.96907e-05
2.27343e-05
-8.34135e-05
2.43765e-05
-8.82159e-05
2.7254e-05
-9.46704e-05
3.18137e-05
-0.000102396
3.67158e-05
-0.000108661
3.89964e-05
-0.000109628
3.5615e-05
-0.000101499
-8.48682e-05
2.65261e-05
-5.68893e-07
-5.67166e-05
2.47023e-07
-6.06815e-05
5.50088e-07
-6.07397e-05
8.94561e-07
-6.08144e-05
1.17832e-06
-6.12262e-05
1.43182e-06
-6.18184e-05
1.56634e-06
-6.26345e-05
1.6221e-06
-6.37235e-05
1.69956e-06
-6.50398e-05
1.60849e-06
-6.65623e-05
1.38148e-06
-6.83137e-05
9.09191e-07
-7.04108e-05
1.42568e-07
-7.27249e-05
-8.81886e-07
-7.53825e-05
-2.1582e-06
-7.8414e-05
-3.35455e-06
-8.22169e-05
-3.95498e-06
-8.76153e-05
-3.39762e-06
-9.52273e-05
-2.19325e-06
-0.000103601
-1.54796e-06
-0.000109306
-3.00747e-06
-0.000108169
-6.86031e-06
-9.76463e-05
-8.04274e-05
-1.13009e-05
-9.69102e-07
-5.57476e-05
-1.80245e-06
-5.98484e-05
-2.6662e-06
-5.98768e-05
-3.38686e-06
-6.00941e-05
-4.13766e-06
-6.04757e-05
-4.93329e-06
-6.1022e-05
-5.84002e-06
-6.17287e-05
-6.93932e-06
-6.26241e-05
-8.24897e-06
-6.37299e-05
-9.77082e-06
-6.50407e-05
-1.14949e-05
-6.65898e-05
-1.35572e-05
-6.8348e-05
-1.59555e-05
-7.03259e-05
-1.88006e-05
-7.2537e-05
-2.20812e-05
-7.51333e-05
-2.56127e-05
-7.86856e-05
-2.92076e-05
-8.40206e-05
-3.31352e-05
-9.12998e-05
-3.76989e-05
-9.90371e-05
-4.28015e-05
-0.000104203
-4.75013e-05
-0.000103469
-4.99881e-05
-9.51596e-05
-8.14398e-05
-4.8976e-05
-1.49413e-06
-5.42533e-05
-3.1176e-06
-5.8224e-05
-4.7015e-06
-5.82926e-05
-6.25574e-06
-5.85396e-05
-7.85003e-06
-5.88809e-05
-9.51327e-06
-5.93585e-05
-1.12778e-05
-5.99639e-05
-1.32015e-05
-6.07001e-05
-1.5353e-05
-6.15777e-05
-1.77858e-05
-6.26073e-05
-2.0582e-05
-6.37935e-05
-2.37929e-05
-6.51369e-05
-2.749e-05
-6.66282e-05
-3.17607e-05
-6.82659e-05
-3.6695e-05
-7.01989e-05
-4.25243e-05
-7.28562e-05
-4.97197e-05
-7.6825e-05
-5.87746e-05
-8.22451e-05
-6.95922e-05
-8.82195e-05
-8.10491e-05
-9.2746e-05
-9.11522e-05
-9.33661e-05
-9.77827e-05
-8.85285e-05
-7.88326e-05
-0.00010039
-1.81953e-06
-5.24345e-05
-3.8584e-06
-5.61845e-05
-5.86176e-06
-5.62891e-05
-7.91766e-06
-5.64838e-05
-1.00422e-05
-5.67562e-05
-1.22869e-05
-5.71144e-05
-1.4681e-05
-5.75686e-05
-1.72631e-05
-5.81182e-05
-2.00842e-05
-5.87573e-05
-2.32068e-05
-5.94846e-05
-2.66988e-05
-6.03011e-05
-3.06366e-05
-6.11992e-05
-3.51111e-05
-6.21543e-05
-4.02254e-05
-6.31524e-05
-4.61632e-05
-6.42621e-05
-5.33065e-05
-6.57135e-05
-6.23058e-05
-6.78261e-05
-7.38141e-05
-7.07375e-05
-8.79421e-05
-7.40921e-05
-0.000103826
-7.68622e-05
-0.000119662
-7.75314e-05
-0.000133369
-7.48217e-05
-6.82416e-05
-0.00014396
-2.06347e-06
-5.0371e-05
-4.37821e-06
-5.38686e-05
-6.72747e-06
-5.39389e-05
-9.13808e-06
-5.40726e-05
-1.16335e-05
-5.42605e-05
-1.42478e-05
-5.44996e-05
-1.70245e-05
-5.4791e-05
-2.00056e-05
-5.51361e-05
-2.32304e-05
-5.55321e-05
-2.67438e-05
-5.5971e-05
-3.06028e-05
-5.64418e-05
-3.4873e-05
-5.69287e-05
-3.96208e-05
-5.74063e-05
-4.49213e-05
-5.78522e-05
-5.08958e-05
-5.82878e-05
-5.78036e-05
-5.88055e-05
-6.61139e-05
-5.95153e-05
-7.64319e-05
-6.04195e-05
-8.91959e-05
-6.13279e-05
-0.000104183
-6.18752e-05
-0.000120172
-6.15431e-05
-0.000135351
-5.96427e-05
-5.52915e-05
-0.000148301
-2.28135e-06
-4.80895e-05
-4.79199e-06
-5.13582e-05
-7.36018e-06
-5.13707e-05
-9.99814e-06
-5.14349e-05
-1.27317e-05
-5.15274e-05
-1.55815e-05
-5.16497e-05
-1.85776e-05
-5.17962e-05
-2.17514e-05
-5.19625e-05
-2.51407e-05
-5.21426e-05
-2.87855e-05
-5.23265e-05
-3.27268e-05
-5.25013e-05
-3.70061e-05
-5.26503e-05
-4.16641e-05
-5.27491e-05
-4.67432e-05
-5.27737e-05
-5.23034e-05
-5.27282e-05
-5.84447e-05
-5.26646e-05
-6.5335e-05
-5.26253e-05
-7.32292e-05
-5.25259e-05
-8.24148e-05
-5.21426e-05
-9.30022e-05
-5.1288e-05
-0.000104632
-4.99139e-05
-0.000116408
-4.78674e-05
-4.45304e-05
-0.000127169
-2.43611e-06
-4.56527e-05
-5.0796e-06
-4.8714e-05
-7.76812e-06
-4.86814e-05
-1.05212e-05
-4.86812e-05
-1.33553e-05
-4.86925e-05
-1.62957e-05
-4.87088e-05
-1.93637e-05
-4.87278e-05
-2.25829e-05
-4.8743e-05
-2.59795e-05
-4.87458e-05
-2.95807e-05
-4.87254e-05
-3.34136e-05
-4.86687e-05
-3.75044e-05
-4.85594e-05
-4.1878e-05
-4.83753e-05
-4.65601e-05
-4.80913e-05
-5.15891e-05
-4.76989e-05
-5.70246e-05
-4.72285e-05
-6.29272e-05
-4.67224e-05
-6.93161e-05
-4.61372e-05
-7.61667e-05
-4.52918e-05
-8.34538e-05
-4.40005e-05
-9.11293e-05
-4.22386e-05
-9.89855e-05
-4.00108e-05
-3.69998e-05
-0.000106516
-2.52329e-06
-4.31295e-05
-5.22169e-06
-4.60165e-05
-7.95527e-06
-4.59486e-05
-1.07395e-05
-4.58979e-05
-1.35911e-05
-4.58418e-05
-1.65244e-05
-4.57764e-05
-1.95563e-05
-4.5696e-05
-2.27056e-05
-4.55938e-05
-2.59905e-05
-4.54614e-05
-2.94282e-05
-4.52881e-05
-3.30347e-05
-4.50623e-05
-3.68233e-05
-4.47709e-05
-4.08029e-05
-4.43958e-05
-4.49799e-05
-4.39144e-05
-4.93703e-05
-4.33085e-05
-5.40135e-05
-4.25849e-05
-5.89586e-05
-4.17773e-05
-6.42023e-05
-4.08941e-05
-6.9638e-05
-3.98566e-05
-7.50991e-05
-3.85395e-05
-8.04619e-05
-3.6876e-05
-8.56494e-05
-3.4823e-05
-3.21886e-05
-9.04604e-05
-2.55953e-06
-4.05691e-05
-5.25452e-06
-4.33206e-05
-7.9692e-06
-4.32335e-05
-1.07134e-05
-4.31532e-05
-1.35041e-05
-4.30514e-05
-1.63525e-05
-4.29275e-05
-1.92731e-05
-4.27752e-05
-2.22788e-05
-4.25883e-05
-2.53803e-05
-4.236e-05
-2.85867e-05
-4.20816e-05
-3.19062e-05
-4.17426e-05
-3.5345e-05
-4.13317e-05
-3.89051e-05
-4.08354e-05
-4.25822e-05
-4.02371e-05
-4.63701e-05
-3.95204e-05
-5.02736e-05
-3.86807e-05
-5.43149e-05
-3.77355e-05
-5.85031e-05
-3.67059e-05
-6.27857e-05
-3.55741e-05
-6.70486e-05
-3.42765e-05
-7.11719e-05
-3.27527e-05
-7.50444e-05
-3.09502e-05
-2.87383e-05
-7.84949e-05
-2.52014e-06
-3.80496e-05
-5.15054e-06
-4.06909e-05
-7.78559e-06
-4.05993e-05
-1.04395e-05
-4.05e-05
-1.31181e-05
-4.03731e-05
-1.58342e-05
-4.02118e-05
-1.85979e-05
-4.00118e-05
-2.14169e-05
-3.97693e-05
-2.42978e-05
-3.9479e-05
-2.72452e-05
-3.91343e-05
-3.02615e-05
-3.87268e-05
-3.33467e-05
-3.82469e-05
-3.64982e-05
-3.76842e-05
-3.97086e-05
-3.70271e-05
-4.29652e-05
-3.62642e-05
-4.62576e-05
-3.53886e-05
-4.95871e-05
-3.44062e-05
-5.29586e-05
-3.33346e-05
-5.63504e-05
-3.21822e-05
-5.96984e-05
-3.09281e-05
-6.29175e-05
-2.95333e-05
-6.59142e-05
-2.79532e-05
-2.60896e-05
-6.8563e-05
-2.42397e-06
-3.5625e-05
-4.93499e-06
-3.81798e-05
-7.43488e-06
-3.81001e-05
-9.94272e-06
-3.79933e-05
-1.24659e-05
-3.78499e-05
-1.50139e-05
-3.7665e-05
-1.75906e-05
-3.74355e-05
-2.02001e-05
-3.71593e-05
-2.28461e-05
-3.68324e-05
-2.55305e-05
-3.64496e-05
-2.82525e-05
-3.6005e-05
-3.10077e-05
-3.54918e-05
-3.37896e-05
-3.49022e-05
-3.65887e-05
-3.42278e-05
-3.93928e-05
-3.34603e-05
-4.21888e-05
-3.25929e-05
-4.49699e-05
-3.16257e-05
-4.77345e-05
-3.05706e-05
-5.04712e-05
-2.94459e-05
-5.31425e-05
-2.82569e-05
-5.569e-05
-2.69859e-05
-5.80444e-05
-2.55985e-05
-2.40134e-05
-6.01205e-05
-2.26254e-06
-3.33627e-05
-4.61419e-06
-3.5828e-05
-6.95293e-06
-3.57615e-05
-9.2896e-06
-3.56569e-05
-1.16356e-05
-3.55042e-05
-1.39943e-05
-3.53067e-05
-1.6367e-05
-3.50629e-05
-1.87557e-05
-3.47705e-05
-2.11616e-05
-3.44265e-05
-2.35842e-05
-3.40272e-05
-2.60215e-05
-3.35681e-05
-2.84689e-05
-3.30446e-05
-3.09195e-05
-3.24514e-05
-3.3364e-05
-3.1783e-05
-3.57901e-05
-3.10338e-05
-3.81839e-05
-3.01989e-05
-4.05338e-05
-2.92756e-05
-4.28355e-05
-2.82689e-05
-4.50861e-05
-2.71952e-05
-4.72701e-05
-2.60727e-05
-4.935e-05
-2.49059e-05
-5.12704e-05
-2.36778e-05
-2.23178e-05
-5.29659e-05
-2.05359e-06
-3.131e-05
-4.21431e-06
-3.36679e-05
-6.36847e-06
-3.36078e-05
-8.52468e-06
-3.35004e-05
-1.0684e-05
-3.33455e-05
-1.28458e-05
-3.31443e-05
-1.50111e-05
-3.28973e-05
-1.71802e-05
-3.26015e-05
-1.93526e-05
-3.22543e-05
-2.15268e-05
-3.18531e-05
-2.37001e-05
-3.13946e-05
-2.5869e-05
-3.08754e-05
-2.80281e-05
-3.02923e-05
-3.01693e-05
-2.9642e-05
-3.22821e-05
-2.89215e-05
-3.43534e-05
-2.8128e-05
-3.63701e-05
-2.72591e-05
-3.83234e-05
-2.63157e-05
-4.02103e-05
-2.53081e-05
-4.20261e-05
-2.42566e-05
-4.37521e-05
-2.31796e-05
-4.53513e-05
-2.20782e-05
-2.08946e-05
-4.67744e-05
-1.85434e-06
-2.94555e-05
-3.81547e-06
-3.17075e-05
-5.77139e-06
-3.1652e-05
-7.73172e-06
-3.15398e-05
-9.69225e-06
-3.13851e-05
-1.16517e-05
-3.11848e-05
-1.36105e-05
-3.09387e-05
-1.55672e-05
-3.06448e-05
-1.75201e-05
-3.03012e-05
-1.9467e-05
-2.99057e-05
-2.14048e-05
-2.94561e-05
-2.33293e-05
-2.89502e-05
-2.52351e-05
-2.83859e-05
-2.71153e-05
-2.77616e-05
-2.89609e-05
-2.70758e-05
-3.07612e-05
-2.63277e-05
-3.25044e-05
-2.5516e-05
-3.41805e-05
-2.46395e-05
-3.57855e-05
-2.37028e-05
-3.73191e-05
-2.27226e-05
-3.8774e-05
-2.17244e-05
-4.01268e-05
-2.0725e-05
-1.96815e-05
-4.13397e-05
-1.67613e-06
-2.77788e-05
-3.44146e-06
-2.99424e-05
-5.20643e-06
-2.98872e-05
-6.96971e-06
-2.97764e-05
-8.73233e-06
-2.96227e-05
-1.0493e-05
-2.94249e-05
-1.22505e-05
-2.91812e-05
-1.40034e-05
-2.88916e-05
-1.57493e-05
-2.8555e-05
-1.74855e-05
-2.81696e-05
-1.92079e-05
-2.77338e-05
-2.09119e-05
-2.72462e-05
-2.25919e-05
-2.67058e-05
-2.42418e-05
-2.61117e-05
-2.58542e-05
-2.54633e-05
-2.74211e-05
-2.47608e-05
-2.89332e-05
-2.40039e-05
-3.03813e-05
-2.31914e-05
-3.17601e-05
-2.23241e-05
-3.30693e-05
-2.14134e-05
-3.43079e-05
-2.04856e-05
-3.5463e-05
-1.95698e-05
-1.86378e-05
-3.65067e-05
-1.50667e-06
-2.62723e-05
-3.08661e-06
-2.83623e-05
-4.66684e-06
-2.83067e-05
-6.24427e-06
-2.8199e-05
-7.81978e-06
-2.80473e-05
-9.39175e-06
-2.78531e-05
-1.09578e-05
-2.76148e-05
-1.25168e-05
-2.73322e-05
-1.40666e-05
-2.70051e-05
-1.5604e-05
-2.66323e-05
-1.7125e-05
-2.62129e-05
-1.86252e-05
-2.5746e-05
-2.00996e-05
-2.52312e-05
-2.15429e-05
-2.46681e-05
-2.29491e-05
-2.40568e-05
-2.43122e-05
-2.33974e-05
-2.56252e-05
-2.26905e-05
-2.68807e-05
-2.19355e-05
-2.80726e-05
-2.11319e-05
-2.9199e-05
-2.02866e-05
-3.02607e-05
-1.94238e-05
-3.12517e-05
-1.85787e-05
-1.77356e-05
-3.21539e-05
-1.33856e-06
-2.49343e-05
-2.74459e-06
-2.69565e-05
-4.14342e-06
-2.69069e-05
-5.54311e-06
-2.67997e-05
-6.93923e-06
-2.66512e-05
-8.33054e-06
-2.64612e-05
-9.71521e-06
-2.623e-05
-1.10912e-05
-2.59566e-05
-1.24563e-05
-2.56405e-05
-1.38075e-05
-2.52815e-05
-1.51414e-05
-2.48791e-05
-1.64542e-05
-2.44332e-05
-1.77419e-05
-2.39436e-05
-1.89998e-05
-2.34104e-05
-2.02232e-05
-2.28336e-05
-2.14071e-05
-2.22137e-05
-2.25462e-05
-2.15514e-05
-2.36349e-05
-2.08467e-05
-2.46674e-05
-2.00992e-05
-2.56404e-05
-1.93136e-05
-2.65537e-05
-1.85105e-05
-2.74059e-05
-1.77267e-05
-1.69544e-05
-2.81873e-05
-1.17005e-06
-2.37646e-05
-2.40522e-06
-2.57212e-05
-3.63259e-06
-2.56793e-05
-4.86079e-06
-2.5572e-05
-6.08525e-06
-2.54264e-05
-7.3048e-06
-2.52411e-05
-8.51827e-06
-2.50166e-05
-9.72288e-06
-2.47524e-05
-1.09157e-05
-2.44478e-05
-1.20941e-05
-2.41028e-05
-1.32554e-05
-2.37174e-05
-1.43965e-05
-2.32917e-05
-1.5514e-05
-2.28259e-05
-1.66041e-05
-2.23201e-05
-1.76629e-05
-2.17747e-05
-1.86862e-05
-2.11902e-05
-1.96699e-05
-2.05674e-05
-2.06096e-05
-1.99069e-05
-2.15003e-05
-1.92085e-05
-2.23385e-05
-1.84755e-05
-2.31234e-05
-1.77259e-05
-2.38558e-05
-1.69945e-05
-1.62785e-05
-2.45319e-05
-1.01279e-06
-2.27517e-05
-2.07995e-06
-2.46536e-05
-3.14613e-06
-2.46138e-05
-4.21064e-06
-2.45074e-05
-5.27281e-06
-2.43642e-05
-6.33054e-06
-2.41838e-05
-7.38206e-06
-2.39658e-05
-8.42491e-06
-2.37101e-05
-9.45638e-06
-2.34167e-05
-1.04739e-05
-2.30856e-05
-1.14752e-05
-2.27165e-05
-1.24575e-05
-2.23097e-05
-1.34179e-05
-2.18656e-05
-1.43535e-05
-2.13845e-05
-1.52609e-05
-2.0867e-05
-1.6137e-05
-2.03139e-05
-1.69782e-05
-1.97261e-05
-1.77808e-05
-1.91044e-05
-1.85408e-05
-1.84489e-05
-1.92552e-05
-1.77616e-05
-1.99238e-05
-1.70577e-05
-2.05495e-05
-1.63689e-05
-1.56966e-05
-2.11315e-05
-8.73832e-07
-2.18775e-05
-1.78385e-06
-2.37434e-05
-2.69539e-06
-2.37026e-05
-3.605e-06
-2.35968e-05
-4.51287e-06
-2.3456e-05
-5.41655e-06
-2.32801e-05
-6.31354e-06
-2.30684e-05
-7.20195e-06
-2.2821e-05
-8.07989e-06
-2.25382e-05
-8.94529e-06
-2.22199e-05
-9.79596e-06
-2.18659e-05
-1.06296e-05
-2.14763e-05
-1.14436e-05
-2.10518e-05
-1.22354e-05
-2.05928e-05
-1.30022e-05
-2.01003e-05
-1.37414e-05
-1.9575e-05
-1.44501e-05
-1.90179e-05
-1.51251e-05
-1.843e-05
-1.57632e-05
-1.78116e-05
-1.63616e-05
-1.71638e-05
-1.69219e-05
-1.64977e-05
-1.74495e-05
-1.58412e-05
-1.52009e-05
-1.79451e-05
-7.40354e-07
-2.11372e-05
-1.5044e-06
-2.29804e-05
-2.26789e-06