/*--------------------------------*- C++ -*----------------------------------*\
| =========                 |                                                 |
| \\      /  F ield         | OpenFOAM: The Open Source CFD Toolbox           |
|  \\    /   O peration     | Version:  2206                                  |
|   \\  /    A nd           | Website:  www.openfoam.com                      |
|    \\/     M anipulation  |                                                 |
\*---------------------------------------------------------------------------*/
FoamFile
{
    version     2.0;
    format      ascii;
    arch        "LSB;label=32;scalar=64";
    class       volScalarField;
    location    "0.675";
    object      p_rgh;
}
// * * * * * * * * * * * * * * * * * * * * * * * * * * * * * * * * * * * * * //

dimensions      [1 -1 -2 0 0 0 0];

internalField   nonuniform List<scalar> 
2268
(
522.099
521.627
523.621
528.597
538.283
553.888
574.976
597.806
619.876
640.529
661.837
683.21
704.186
724.349
743.645
760.93
775.779
787.17
793.469
792.951
795.644
818.662
849.77
521.642
520.693
522.559
527.429
536.88
552.549
574.002
597.328
619.724
640.371
661.789
683.208
704.219
724.36
743.842
761.244
776.453
789.453
794.593
790.308
786.995
806.034
843.881
520.032
518.768
520.803
525.452
534.27
549.765
571.928
596.343
619.516
640.063
661.807
683.361
704.392
724.373
743.972
761.12
776.521
790.334
799.626
789.498
779.8
793.161
838.598
517.873
516.266
518.399
522.622
530.445
545.603
568.923
595.048
619.294
639.85
661.955
683.688
704.863
724.97
744.177
761.413
776.806
790.557
800.96
801.449
784.824
796.391
839.646
515.801
513.552
515.642
519.361
526.286
541.079
566.021
593.85
618.721
640.212
662.365
684.278
705.514
725.772
744.883
762.243
777.78
791.528
802.603
808.488
805.163
819.493
845.763
513.64
511.254
512.484
515.863
522.517
538.281
563.993
592.546
618.019
640.542
663.079
685.027
706.408
726.809
745.975
763.476
779.174
793.127
805.096
814.034
822.065
829.472
850.734
511.616
510.189
510.35
513.305
521.407
537.525
562.744
590.843
616.562
640.331
663.703
686.006
707.592
728.141
747.43
765.079
780.883
794.987
807.495
818.232
828.538
837.577
855.789
491.819
474.425
460.978
451.644
460.914
484.336
531.994
585.606
614.906
639.873
664.263
687.076
708.93
729.599
749.134
767.053
782.943
797.107
809.91
821.836
833.861
844.873
864.187
817.782
735.168
820.302
975.442
1127.13
1251.66
1377.38
1481.9
1522.15
1380.76
1115.27
933.347
858.905
839.787
890.583
1104.55
1456.09
1617.45
1581.17
797.092
687.424
787.649
959.975
1114.57
1244.4
1384.33
1479.62
1522.28
1289.6
972.152
831.855
811.114
825.097
870.474
1035.38
1361.43
1584.89
1584.01
734.29
643.449
759.862
938.029
1093.87
1226.58
1395.19
1549.42
1403.92
960.072
743.286
711.921
710.2
721.149
743.981
832.979
1138.56
1527.85
1587.37
635.897
596.057
737.081
909.738
1061.23
1201.71
1403.96
1611.86
1156.77
747.453
697.118
691.005
689.959
690
691.351
707.888
841.375
1374.76
1581.19
628.101
552.087
719.487
873.963
1009.96
1154.57
1435.71
1654.09
959.405
705.102
691.814
690.161
689.597
689.53
690.023
694.987
736.475
1057.64
1558.91
637.946
628.26
718.431
829.239
926.554
1064.51
1422.23
1626.7
851.696
694.994
690.426
689.763
689.404
689.321
689.518
691.211
708.011
867.15
1516.87
733.551
734.193
717.492
768.247
781.433
894.741
1302.98
1499.9
780.319
692.283
689.945
689.574
689.319
689.234
689.306
689.781
694.505
777.68
1442.72
851.1
761.644
707.379
676.882
493.335
564.003
1087.42
1414.76
758.983
691.124
689.72
689.488
689.33
689.217
689.196
689.286
689.739
729.514
1338.95
165.447
154.215
155.882
171.289
205.917
269.027
355.986
452.281
543.729
618.372
664.944
688.949
711.654
732.54
752.327
770.73
786.48
800.602
813.906
826.934
841.299
855.857
874.711
1.71342
1.26164
10.718
28.4496
48.128
65.5183
77.8177
101.361
162.586
263.853
392.103
513.851
605.946
676.689
754.624
778.339
792.343
805.692
818.519
832.258
850.492
869.65
886.344
1.22256
1.00138
0.899032
0.889595
0.831929
0.762866
0.736078
0.765247
0.797599
0.99726
21.384
70.705
134.048
210.989
307.071
439.553
538.323
586.105
638.721
714.702
793.335
852.513
894.809
0.939739
0.804922
0.716057
0.781274
0.766386
0.701279
0.667866
0.697325
0.746815
0.776705
0.758892
0.79937
0.916389
1.07305
1.0735
0.761179
14.3595
37.8146
59.7823
115.46
240.905
509.69
751.29
0.850507
0.78015
0.743537
0.774716
0.741716
0.680637
0.641399
0.644756
0.675681
0.707209
0.734631
0.781483
0.836393
0.882605
0.832775
0.690225
0.721085
1.16633
-0.0383689
30.7576
327.999
456.608
84.7143
0.788131
0.766536
0.740673
0.724758
0.705638
0.675796
0.662627
0.673186
0.685589
0.699425
0.71034
0.727791
0.745335
0.75124
0.708379
0.65286
0.648278
0.677619
10.494
131.764
151.076
38.8904
18.3722
0.723714
0.718576
0.698793
0.681946
0.667722
0.65234
0.644243
0.642192
0.641898
0.645213
0.64948
0.653253
0.656181
0.658541
0.624177
0.529838
0.444258
0.602951
0.971846
0.407471
0.920097
13.192
262.445
0.667196
0.662133
0.650443
0.642077
0.631605
0.616537
0.60958
0.606209
0.604034
0.600019
0.593149
0.583102
0.567814
0.54171
0.493911
0.414715
0.30184
0.245846
0.422345
0.458152
0.630375
1.37547
68.1551
0.616235
0.611353
0.603917
0.597108
0.58795
0.577373
0.569629
0.563651
0.557266
0.548412
0.535365
0.517418
0.49137
0.453745
0.402047
0.333099
0.248572
0.164601
0.165253
0.309077
0.594611
1.3098
2.99034
0.568025
0.564312
0.558607
0.551485
0.543294
0.534222
0.5254
0.516132
0.505455
0.492431
0.475601
0.453078
0.422854
0.383027
0.331575
0.266954
0.193452
0.119008
0.0499178
0.0963877
0.255345
0.151061
0.231465
0.52218
0.518986
0.514375
0.507741
0.500049
0.490571
0.480324
0.468803
0.45545
0.43934
0.419112
0.393043
0.359723
0.318008
0.266605
0.204836
0.13545
0.0643579
-0.00658516
-0.0422286
0.00629745
-0.098951
-0.20821
0.47867
0.475907
0.47182
0.465457
0.457713
0.447791
0.436397
0.423161
0.407605
0.388843
0.36583
0.337363
0.302181
0.259178
0.207417
0.14647
0.0776146
0.00444099
-0.0725599
-0.0925802
-0.0427763
-0.143901
-0.286107
0.437443
0.435074
0.431127
0.424739
0.416643
0.406296
0.393946
0.379269
0.361863
0.341059
0.316044
0.285837
0.249363
0.205573
0.153548
0.0926552
0.0230638
-0.0536529
-0.138807
-0.0991134
0.133351
0.0748117
-0.343694
0.39848
0.396351
0.392397
0.385958
0.377491
0.366649
0.353488
0.337738
0.319037
0.296837
0.270422
0.238946
0.201495
0.157099
0.104765
0.0436189
-0.0269982
-0.106749
-0.198452
-0.117539
0.0416502
-0.306187
-0.951698
0.361798
0.359799
0.355779
0.34926
0.34049
0.329239
0.315488
0.299006
0.279449
0.256332
0.229019
0.196771
0.158787
0.114128
0.0617248
0.000449982
-0.0710207
-0.15364
-0.250113
-0.270218
-0.306273
-0.766269
-1.32355
0.327399
0.325477
0.321374
0.314761
0.305761
0.294234
0.280107
0.263175
0.243118
0.219496
0.191756
0.159217
0.121144
0.0766741
0.0247022
-0.0360856
-0.10746
-0.191504
-0.291472
-0.421764
-0.614738
-0.825848
-1.13769
0.295285
0.293402
0.289236
0.282559
0.273426
0.261754
0.247448
0.230315
0.210071
0.18632
0.158572
0.126214
0.0885461
0.044806
-0.00615035
-0.0656288
-0.135519
-0.218367
-0.318105
-0.445875
-0.628891
-0.855051
-0.787227
0.265442
0.263573
0.259383
0.252699
0.24354
0.23186
0.217573
0.200478
0.180338
0.156798
0.129391
0.0975973
0.0608076
0.0185182
-0.0307913
-0.0881127
-0.155201
-0.234497
-0.329261
-0.448755
-0.613175
-0.850214
-0.823692
0.237852
0.235942
0.231802
0.225161
0.216076
0.204522
0.190472
0.173626
0.153836
0.130806
0.10409
0.073189
0.0374796
-0.00216543
-0.0494292
-0.103731
-0.166778
-0.240761
-0.329091
-0.437308
-0.577222
-0.766041
-1.043
0.212506
0.210387
0.206484
0.199921
0.190991
0.179642
0.166137
0.149689
0.130461
0.10821
0.0825532
0.0530588
0.019326
-0.0189654
-0.0630351
-0.113525
-0.171737
-0.239335
-0.318817
-0.413639
-0.529085
-0.673132
-0.862941
0.189253
0.187095
0.183252
0.17692
0.168299
0.157402
0.144202
0.128444
0.110024
0.0887588
0.0643701
0.0364998
0.004785
-0.0311709
-0.0719868
-0.118318
-0.17116
-0.231723
-0.301523
-0.382686
-0.477367
-0.589108
-0.722935
0.167971
0.165833
0.162135
0.156053
0.147808
0.137407
0.124777
0.109786
0.0923205
0.0722087
0.0492397
0.0231534
-0.0063526
-0.0395995
-0.076994
-0.11902
-0.166362
-0.219841
-0.280285
-0.348902
-0.426596
-0.514978
-0.61397
0.148605
0.146532
0.143013
0.137215
0.129405
0.11957
0.107639
0.093513
0.077104
0.0582718
0.0368596
0.0126757
-0.0145054
-0.0449095
-0.0788059
-0.116527
-0.158511
-0.205219
-0.25705
-0.31451
-0.377845
-0.447584
-0.522455
0.131096
0.129112
0.125792
0.120312
0.112981
0.103764
0.0926024
0.0794136
0.0641276
0.0466573
0.0268882
0.00467249
-0.0201395
-0.047684
-0.0781184
-0.111645
-0.148506
-0.188911
-0.232951
-0.280683
-0.331956
-0.386652
-0.443521
0.11535
0.113474
0.110364
0.105223
0.0983975
0.0898278
0.079466
0.0672439
0.0531184
0.0370557
0.0189643
-0.00126658
-0.0237236
-0.0484664
-0.0755612
-0.105103
-0.137186
-0.171844
-0.208968
-0.24838
-0.289748
-0.332676
-0.376096
0.101256
0.0994959
0.096597
0.0918103
0.0854936
0.0775763
0.0680233
0.0567729
0.0438237
0.0291754
0.0127568
-0.00551403
-0.0256807
-0.0477443
-0.0716944
-0.097535
-0.12525
-0.154753
-0.185838
-0.218228
-0.251526
-0.285262
-0.31853
0.0886901
0.0870342
0.0843574
0.0799315
0.0741196
0.0668467
0.0580928
0.047814
0.0360391
0.0227856
0.00800335
-0.00837352
-0.0263558
-0.0458976
-0.0669271
-0.0893763
-0.113155
-0.138105
-0.163989
-0.190499
-0.217233
-0.243718
-0.269191
0.077506
0.0759327
0.0734938
0.0694323
0.0641235
0.0574806
0.0495101
0.0401955
0.0295764
0.0176804
0.00447135
-0.0101015
-0.0260242
-0.043215
-0.0615581
-0.0809355
-0.101211
-0.122196
-0.143648
-0.16527
-0.186686
-0.207451
-0.22691
0.0675368
0.0660268
0.0638446
0.0601496
0.0553471
0.0493198
0.0421221
0.0337546
0.0242591
0.0136625
0.00193736
-0.0109427
-0.024945
-0.0399646
-0.0558594
-0.0724774
-0.0896602
-0.107218
-0.124924
-0.142508
-0.159632
-0.175884
-0.190702
0.0586337
0.0571856
0.055269
0.0519406
0.0476474
0.0422268
0.0357928
0.0283451
0.0199211
0.0105419
0.000194176
-0.01112
-0.0233483
-0.0363733
-0.0500426
-0.0641925
-0.0786617
-0.0932741
-0.107827
-0.122084
-0.135741
-0.14843
-0.159679
0.0506827
0.0493256
0.0476572
0.044689
0.0408952
0.0360706
0.0303788
0.0238081
0.0163866
0.00813383
-0.000941111
-0.0108087
-0.0213998
-0.0325962
-0.0442469
-0.0561969
-0.0682945
-0.0803818
-0.0922836
-0.103794
-0.114646
-0.124523
-0.133052
0.0435982
0.042374
0.0409178
0.0382946
0.0349682
0.0307123
0.0257216
0.0199697
0.0134797
0.00627263
-0.00161864
-0.0101417
-0.0192211
-0.0287456
-0.038577
-0.0485762
-0.0586053
-0.0685253
-0.078188
-0.0874166
-0.0959853
-0.10364
-0.110097
0.0373133
0.0362471
0.0349692
0.0326635
0.0297578
0.0260253
0.0216806
0.0166817
0.0110559
0.00482921
-0.00195043
-0.00922148
-0.0169123
-0.0249232
-0.033132
-0.0414124
-0.0496383
-0.0576912
-0.0654474
-0.0727601
-0.0794488
-0.0853216
-0.0901753
0.0317597
0.0308582
0.029728
0.0277024
0.0251686
0.0219084
0.0181527
0.0138416
0.00901932
0.00371635
-0.00201925
-0.00813319
-0.0145639
-0.0212233
-0.027999
-0.0347719
-0.0414281
-0.0478677
-0.0539897
-0.0596811
-0.064807
-0.0692313
-0.0728103
0.0268433
0.0261121
0.0250935
0.0233125
0.0211108
0.0182837
0.0150687
0.0113897
0.00731604
0.00287583
-0.00189566
-0.00695978
-0.0122653
-0.0177302
-0.0232462
-0.0286999
-0.0339927
-0.0390424
-0.0437724
-0.0481031
-0.0519388
-0.0551863
-0.0577438
0.0224407
0.0218908
0.0209536
0.0193972
0.017506
0.0150934
0.0123836
0.00929069
0.00590934
0.00225593
-0.00164967
-0.00578242
-0.0100957
-0.0145077
-0.0189147
-0.0232165
-0.0273339
-0.0312054
-0.0347785
-0.0379981
-0.0407966
-0.0431107
-0.0448719
0.0184263
0.0180644
0.0172025
0.0158689
0.0142878
0.012283
0.0100488
0.00749931
0.00474814
0.00179571
-0.00134609
-0.00465868
-0.00809507
-0.0115745
-0.0150061
-0.0183124
-0.0214372
-0.0243387
-0.0269802
-0.0293195
-0.0313076
-0.0329021
-0.0340664
0.0146835
0.0145201
0.0137398
0.012644
0.0113813
0.00977146
0.00798114
0.0059336
0.00375232
0.00142552
-0.00103526
-0.00361394
-0.00626482
-0.00891721
-0.0115017
-0.0139656
-0.0162724
-0.0183919
-0.0202927
-0.0219418
-0.023303
-0.0243529
-0.0250823
0.0111262
0.0111705
0.0104766
0.00964285
0.00869636
0.00745508
0.00607617
0.00449417
0.00283705
0.00108501
-0.000750714
-0.00265868
-0.00460119
-0.00652534
-0.00838418
-0.0101435
-0.0117783
-0.0132635
-0.0145709
-0.0156762
-0.0165541
-0.0171986
-0.0176098
0.00771796
0.00795011
0.00736766
0.00680727
0.00615606
0.0052548
0.00426149
0.00312399
0.0019645
0.000753255
-0.000500068
-0.00179279
-0.00310049
-0.00438804
-0.00562498
-0.00678899
-0.00786155
-0.00882247
-0.00964996
-0.0103257
-0.0108341
-0.0111793
-0.0113614
0.00450534
0.00482682
0.00438625
0.0040883
0.0037023
0.00313397
0.00252173
0.00183007
0.00115421
0.000454558
-0.00026063
-0.000995545
-0.00173688
-0.00246412
-0.00315944
-0.0038103
-0.00440325
-0.00492358
-0.00535926
-0.00569837
-0.00593566
-0.00607419
-0.00611466
0.00134079
0.00167108
0.0014807
0.00140209
0.00126646
0.00104761
0.000833483
0.000594576
0.00038238
0.000162647
-6.06401e-05
-0.000292835
-0.00052746
-0.000755231
-0.000969261
-0.00116669
-0.00134268
-0.0014913
-0.0016096
-0.00169439
-0.00174633
-0.00176605
-0.00175571
884.309
885.668
884.516
879.745
891.01
890.784
886.939
880.363
908.656
897.088
859.522
819.862
731.205
428.381
186.525
83.0048
24.0487
28.6208
33.6323
35.5607
20.0764
20.5491
26.6476
36.247
387.943
398.684
413.205
423.384
362.554
468.539
471.672
473.501
2.3811
10.0772
44.7121
259.798
0.581682
2.33913
8.99783
15.2542
-0.111298
1.37369
5.6528
15.0337
-0.0900931
2.06475
8.40997
26.0435
-0.311555
1.27638
8.31845
13.6325
-1.12715
2.34133
20.4927
24.1386
-1.6991
4.15879
20.2371
6.83553
-1.51782
2.22863
15.5208
-0.639622
-1.08532
-0.988061
5.4414
1.58986
-1.30757
-1.72964
-2.28193
-1.44764
-1.34616
-1.57192
-1.79527
-2.03208
-1.04797
-1.18209
-1.31931
-1.45054
-0.84274
-0.923956
-1.00332
-1.07705
-0.696217
-0.749987
-0.801564
-0.849413
-0.581076
-0.618868
-0.655194
-0.689063
-0.48616
-0.513358
-0.539521
-0.563991
-0.40757
-0.427382
-0.446356
-0.464065
-0.341909
-0.356425
-0.370205
-0.382939
-0.286553
-0.297169
-0.307096
-0.316088
-0.239744
-0.247436
-0.254471
-0.260654
-0.200113
-0.205621
-0.210526
-0.21467
-0.166544
-0.170464
-0.173857
-0.176586
-0.138072
-0.140875
-0.143219
-0.144988
-0.113796
-0.115815
-0.117431
-0.118548
-0.0928941
-0.0943382
-0.0954316
-0.0961049
-0.0747534
-0.0757505
-0.0764557
-0.0768286
-0.0590651
-0.0597164
-0.0601374
-0.0603092
-0.0457265
-0.0461249
-0.0463447
-0.0463825
-0.0345897
-0.03481
-0.0348948
-0.0348547
-0.0253697
-0.0254659
-0.0254693
-0.0254
-0.0177245
-0.0177368
-0.0176997
-0.0176343
-0.0113614
-0.0113292
-0.0112847
-0.0112427
-0.00606377
-0.00602361
-0.00598981
-0.00596647
-0.00172618
-0.00170942
-0.00169978
-0.001698
864.901
782.228
666.451
366.902
207.282
237.415
677.398
1266.75
800.054
691.3
689.539
689.517
689.468
689.296
689.128
688.821
688.448
705.442
1151.8
863.238
709.469
229.984
60.9495
124.678
178.639
560.825
1135.61
1042.09
699.834
690.18
690.354
690.489
689.998
689.172
688.322
688.168
689.341
1097.16
653.773
118.73
38.7779
43.1542
223.205
557.756
728.28
992.532
1215.37
820.033
692.262
692.891
693.125
692.018
689.628
687.029
686.368
686.229
1143.64
40.9067
36.719
36.9714
36.8191
28.3318
40.0594
255.904
856.387
1089.62
1198.9
722.104
698.982
697.86
697.978
739.762
698.484
684.181
683.322
1212.46
36.1577
36.5251
35.4476
29.1794
17.5008
10.1789
11.2893
380.102
981.297
1148.09
692.549
704.873
711.703
1034.15
1303.32
1077.09
686.315
678.796
1307.21
41.0878
34.675
33.1309
25.5552
12.9038
3.64254
9.12227
43.27
485.422
583.84
633.679
685.145
1210.65
1583.2
1516.13
1552.54
702.492
705.311
1446.72
285.989
40.8868
31.4091
24.0351
11.3607
-0.0708678
7.35901
6.06277
36.1061
318.668
537.133
1076.29
1689.87
1554.36
1479.66
1593.88
703.1
854.279
1548.45
473.562
424.037
41.5426
30.8692
18.1803
5.61025
5.83562
17.7507
61.9731
214.543
656.638
1336.76
1542.74
1500.2
1465.4
1525.81
754.289
1138.12
1599.82
467.621
486.682
344.157
43.4523
31.0764
21.2853
29.8362
68.8947
118.157
345.645
746.772
575.37
597.081
1441.4
1475.46
1039.52
897.139
1252.87
1612.13
79.3405
474.683
643.216
94.6926
26.9712
25.7108
113.713
270.566
384.273
768.185
525.351
57.2897
176.889
1319.91
1509.19
886.489
909.288
1036.58
1643.96
73.2091
517.086
913.999
958.184
838.418
941.668
1073.85
1116.01
1089.71
873.723
121.553
14.2398
20.943
406.679
1465.87
1486.38
1226.83
1419.67
1825.34
310.004
1194.18
1217
1239.37
1255.23
1249.35
1254.84
781.155
72.6891
7.24498
7.32638
6.42666
6.76323
21.2741
804.001
1726.02
1941.29
2013.17
2039.47
39.9676
562.739
1166.3
1318.24
1290.91
553.348
20.6351
14.477
17.242
18.5283
11.0326
3.86637
2.72977
1.49109
20.3619
937
1744.46
2035.35
2053.5
-1.61408
-3.45248
-3.34443
146.044
213.078
42.8004
10.9384
16.1016
14.6264
1.05226
0.368842
0.890235
0.648703
0.194412
0.0948663
3.35754
336.783
1414.89
2050.94
-3.39781
-3.34477
-2.99524
-2.5648
-2.24799
-0.887324
7.69436
1.61161
-1.3224
-1.15556
-0.901772
-0.655115
-0.572505
-0.438099
-0.0924709
0.99292
4.61882
150.711
2051.28
-3.71929
-3.44056
-2.92878
-2.35993
-1.88253
-1.51965
-1.30843
-1.23417
-1.28962
-1.40421
-1.53296
-1.53634
-1.30948
-0.849008
-0.219593
0.440133
1.6659
43.5761
773.481
-3.62201
-3.3644
-2.81871
-2.19176
-1.67151
-1.34999
-1.21225
-1.21173
-1.35076
-1.55243
-1.74746
-1.7888
-1.48336
-0.930414
-0.300801
0.237058
0.875383
12.4203
23.9045
-2.69334
-3.03485
-2.56719
-2.0232
-1.57811
-1.3061
-1.18448
-1.19029
-1.30484
-1.48143
-1.63128
-1.62606
-1.33594
-0.82049
-0.311544
0.0728434
0.26194
4.86833
53.292
-2.11751
-2.27713
-2.15127
-1.78018
-1.44998
-1.22658
-1.1105
-1.09163
-1.14438
-1.22575
-1.26974
-1.2036
-0.982727
-0.601957
-0.162625
0.0481053
0.250756
6.91638
223.149
-1.65035
-1.73705
-1.65914
-1.47849
-1.27641
-1.12369
-1.02812
-0.980227
-0.962813
-0.951977
-0.918402
-0.826518
-0.644076
-0.38107
-0.0229809
0.144169
0.318605
1.83847
231.403
-1.19677
-1.29782
-1.2899
-1.20504
-1.09429
-0.994321
-0.917002
-0.859833
-0.813944
-0.766461
-0.699796
-0.592777
-0.427292
-0.209143
0.0437235
0.244133
0.416444
0.612856
241.172
-0.924075
-0.998898
-1.01708
-0.983387
-0.923179
-0.857435
-0.796454
-0.741519
-0.68846
-0.629043
-0.550636
-0.439996
-0.287076
-0.0976715
0.124727
0.309164
1.87195
0.95526
247.724
-0.740948
-0.794791
-0.815875
-0.803482
-0.76902
-0.724142
-0.676254
-0.627781
-0.576844
-0.517393
-0.438579
-0.329656
-0.187274
-0.0210984
0.17235
0.335869
2.54845
1.27824
247.192
-0.601572
-0.640433
-0.6582
-0.653615
-0.631772
-0.599498
-0.562294
-0.522579
-0.479033
-0.426107
-0.351882
-0.250557
-0.119654
0.028831
0.195138
0.338862
2.62705
1.32717
255.765
-0.49119
-0.518491
-0.530925
-0.527715
-0.511587
-0.48696
-0.458545
-0.42875
-0.396256
-0.354999
-0.292171
-0.199828
-0.080749
0.0512601
0.193264
0.314834
2.56061
1.38722
262.576
-0.402138
-0.420261
-0.427161
-0.422561
-0.408357
-0.388225
-0.367076
-0.347654
-0.328872
-0.303798
-0.25695
-0.175805
-0.0673134
0.0494378
0.166622
0.256945
0.536144
1.47129
182.909
-0.329271
-0.340273
-0.342317
-0.335442
-0.321199
-0.303579
-0.2887
-0.279847
-0.27709
-0.27246
-0.24308
-0.174757
-0.075805
0.028773
0.127174
0.214365
0.244596
1.54137
0.953686
-0.26934
-0.275015
-0.273184
-0.264154
-0.249108
-0.233008
-0.223578
-0.224618
-0.23943
-0.258302
-0.246219
-0.187274
-0.0975579
0.00343761
0.0866038
0.505107
0.242905
0.344529
0.565104
-0.220123
-0.222081
-0.217565
-0.207058
-0.191205
-0.1761
-0.171022
-0.179643
-0.21094
-0.25187
-0.252562
-0.199639
-0.114807
-0.0149053
0.060929
0.474311
0.223789
0.0799302
110.964
-0.179842
-0.179543
-0.173997
-0.16264
-0.146532
-0.132155
-0.129273
-0.14087
-0.182275
-0.237283
-0.24442
-0.196571
-0.115844
-0.0161977
0.0526112
0.239441
0.122318
0.11738
463.063
-0.146805
-0.145302
-0.139429
-0.128816
-0.113746
-0.100374
-0.0924759
-0.104092
-0.144361
-0.201062
-0.210458
-0.170145
-0.0895779
-0.00849716
0.0534
0.0620409
0.113337
0.121838
481.501
-0.119459
-0.117556
-0.112263
-0.103356
-0.0908006
-0.0789248
-0.0608405
-0.0586351
-0.100226
-0.143445
-0.154646
-0.117985
-0.065899
-0.0162984
0.0391973
0.0616819
0.108797
0.109503
496.156
-0.0964729
-0.0946605
-0.0904414
-0.0837677
-0.0747056
-0.0654701
-0.0491288
-0.0333503
-0.0514337
-0.0841503
-0.0981199
-0.084105
-0.064128
-0.034116
0.0379554
0.082951
0.0967936
0.239758
510.544
-0.0768943
-0.0754008
-0.0723738
-0.0679362
-0.0624229
-0.0568947
-0.0531031
-0.0276138
-0.0306688
-0.0402118
-0.0588555
-0.0842034
-0.0813651
-0.0439869
0.0735053
0.106383
0.0892646
0.747756
524.533
-0.0602145
-0.0590992
-0.0571549
-0.0546029
-0.0519276
-0.0498928
-0.0495652
-0.0472649
-0.0302106
-0.0361937
-0.0484515
-0.0674953
-0.0824548
0.0136062
0.055406
0.0164717
0.0562221
2.73112
537.971
-0.0462089
-0.0454604
-0.0444019
-0.0432503
-0.0425372
-0.0428439
-0.0445946
-0.0482347
-0.0528057
-0.0429397
-0.0476591
-0.0762297
-0.0742163
0.0097165
0.0167696
-0.0491268
-0.0429454
14.5102
547.991
-0.0346674
-0.0342536
-0.0338894
-0.0337313
-0.0343058
-0.0359653
-0.038751
-0.0434503
-0.0500802
-0.0587419
-0.0683541
-0.0792243
-0.0304281
-0.00555355
-0.0860693
-0.123932
-0.200283
20.8721
171.134
-0.0252527
-0.0251233
-0.0252885
-0.0258656
-0.0272579
-0.0298188
-0.0330994
-0.0380087
-0.0452798
-0.0547375
-0.0630279
-0.0753192
-0.00306783
-0.0106848
-0.106984
-0.173337
-0.283312
4.06028
-0.360584
-0.0175577
-0.0176465
-0.0181748
-0.0192984
-0.0211744
-0.0243873
-0.0282128
-0.0329548
-0.0407691
-0.0502884
-0.0552029
-0.0572268
0.00922829
-0.0209705
-0.113267
-0.162759
-0.231896
-0.331301
-0.28371
-0.0112383
-0.0115038
-0.0121929
-0.0136428
-0.0158549
-0.019339
-0.0238327
-0.0283705
-0.03794
-0.0460281
-0.0509707
-0.0557326
0.0202906
-0.0520254
-0.100029
-0.140169
-0.166834
-0.215955
-0.229008
-0.00598946
-0.00623713
-0.00704863
-0.0086475
-0.0111741
-0.0148128
-0.019757
-0.0248338
-0.0363844
-0.0414356
-0.0527031
-0.0315843
-0.0231105
-0.0413791
-0.0939317
-0.130215
-0.15264
-0.186296
-0.209384
-0.00173067
-0.00193674
-0.0025756
-0.00421217
-0.00714887
-0.0111897
-0.0167795
-0.0236444
-0.0359881
-0.0370587
-0.0561242
-0.0346685
-0.0211998
-0.0563958
-0.100021
-0.132684
-0.159084
-0.201226
-0.204889
)
;

boundaryField
{
    leftWall
    {
        type            fixedFluxPressure;
        gradient        uniform 0;
        value           nonuniform List<scalar> 
50
(
522.099
521.642
520.032
517.873
515.801
513.64
511.616
491.819
165.447
1.71342
1.22256
0.939739
0.850507
0.788131
0.723714
0.667196
0.616235
0.568025
0.52218
0.47867
0.437443
0.39848
0.361798
0.327399
0.295285
0.265442
0.237852
0.212506
0.189253
0.167971
0.148605
0.131096
0.11535
0.101256
0.0886901
0.077506
0.0675368
0.0586337
0.0506827
0.0435982
0.0373133
0.0317597
0.0268433
0.0224407
0.0184263
0.0146835
0.0111262
0.00771796
0.00450534
0.00134079
)
;
    }
    rightWall
    {
        type            fixedFluxPressure;
        gradient        uniform 0;
        value           nonuniform List<scalar> 
50
(
1581.17
1584.01
1587.37
1581.19
1558.91
1516.87
1442.72
1338.95
1151.8
1097.16
1143.64
1212.46
1307.21
1446.72
1548.45
1599.82
1612.13
1643.96
1825.34
2039.47
2053.5
2050.94
2051.28
773.481
23.9045
53.292
223.149
231.403
241.172
247.724
247.192
255.765
262.576
182.909
0.953686
0.565104
110.964
463.063
481.501
496.156
510.544
524.533
537.971
547.991
171.134
-0.360584
-0.28371
-0.229008
-0.209384
-0.204889
)
;
    }
    lowerWall
    {
        type            fixedFluxPressure;
        gradient        uniform 0;
        value           nonuniform List<scalar> 
62
(
522.099
521.627
523.621
528.597
538.283
553.888
574.976
597.806
619.876
640.529
661.837
683.21
704.186
724.349
743.645
760.93
775.779
787.17
793.469
792.951
795.644
818.662
849.77
849.77
843.881
838.598
839.646
845.763
850.734
855.789
864.187
884.309
885.668
884.516
879.745
817.782
797.092
734.29
635.897
628.101
637.946
733.551
851.1
817.782
735.168
820.302
975.442
1127.13
1251.66
1377.38
1481.9
1522.15
1380.76
1115.27
933.347
858.905
839.787
890.583
1104.55
1456.09
1617.45
1581.17
)
;
    }
    atmosphere
    {
        type            totalPressure;
        rho             rho;
        psi             none;
        gamma           1;
        p0              uniform 0;
        value           nonuniform List<scalar> 
46
(
0
0
0
0
0
0
0
0
0
0
0
0
0
0
0
0
0
0
0
0
0
0
0
0
0
0
0
0
0
-0.000624815
-0.00227117
-0.00577922
-0.0100645
-0.0163102
-0.0240263
-0.0388767
-0.0362795
-0.0654743
-0.0421995
0
-0.0626052
-0.106497
-0.139015
-0.163668
-0.229295
-0.203935
)
;
    }
    defaultFaces
    {
        type            empty;
    }
}


// ************************************************************************* //
