/*--------------------------------*- C++ -*----------------------------------*\
| =========                 |                                                 |
| \\      /  F ield         | OpenFOAM: The Open Source CFD Toolbox           |
|  \\    /   O peration     | Version:  2206                                  |
|   \\  /    A nd           | Website:  www.openfoam.com                      |
|    \\/     M anipulation  |                                                 |
\*---------------------------------------------------------------------------*/
FoamFile
{
    version     2.0;
    format      ascii;
    arch        "LSB;label=32;scalar=64";
    class       volScalarField;
    location    "0.1";
    object      alpha.water;
}
// * * * * * * * * * * * * * * * * * * * * * * * * * * * * * * * * * * * * * //

dimensions      [0 0 0 0 0 0 0];

internalField   nonuniform List<scalar> 
2268
(
1
1
0.999999
1
1
1
1
1
1
1
1
1
1
1
1
0.999517
0.996075
0.996207
0.995663
0.836067
0.162137
0.0090134
0.0090134
0.999998
1
1
1
1
1
1
1
1
1
1
1
1
1
0.999975
0.999976
0.998311
0.956747
0.811963
0.565248
0.142813
0.0108641
0.0090134
1
1
1
1
1
0.999999
0.999999
1
1
1
1
1
1
0.999998
0.999998
0.999997
0.999937
0.822816
0.295999
0.0600317
0.0941587
0.0396347
0.0108641
1
1
1
0.999999
0.999999
1
1
1
1
1
1
1
1
1
1
0.999997
0.953013
0.548542
0.0777803
0.0109011
0.0248206
0.0388833
0.0142997
1
0.999999
1
1
1
1
1
1
1
1
1
1
1
1
1
0.999961
0.726671
0.171719
0.0108968
0.00404333
0.00145115
0.0188257
0.0207302
1
0.999999
1
1
1
1
1
1
1
1
1
1
1
1
0.999999
0.934447
0.358712
0.0186066
0.00404274
0.00182732
0.000468005
0.00176208
0.0196482
1
0.999999
1
1
1
1
1
1
1
1
1
1
1
1
0.99999
0.72717
0.103236
0.00571071
0.00151551
0.0006092
0.00013949
0.000428623
0.0141151
1
1
1
1
1
1
1
1
1
1
1
1
1
1
0.999921
0.461441
0.0217056
0.00251014
0.000649683
0.000170959
3.43636e-05
0.000152674
0.00535188
2.72032e-20
7.80384e-21
9.32295e-22
3.42585e-23
1.00281e-24
3.2237e-26
1.40575e-27
6.41251e-29
2.52715e-30
8.71099e-32
2.68619e-33
7.31694e-35
1.72131e-36
3.40651e-38
5.47193e-40
6.76274e-42
5.87492e-44
2.79543e-46
1.4045e-46
1.3564e-18
8.0611e-19
1.5595e-19
4.90733e-21
1.10348e-22
3.26295e-24
1.28741e-25
5.43068e-27
2.04082e-28
6.8456e-30
2.07104e-31
5.54718e-33
1.28024e-34
2.46471e-36
3.78185e-38
4.29639e-40
3.10702e-42
8.80444e-45
1.4045e-46
9.35444e-17
5.41296e-17
1.0084e-17
2.88441e-19
6.19184e-21
1.72546e-22
5.91752e-24
2.18043e-25
7.53054e-27
2.39243e-28
6.91442e-30
1.77175e-31
3.90019e-33
7.08866e-35
9.97563e-37
9.64267e-39
6.86296e-41
2.54488e-43
6.28675e-45
4.00401e-15
2.65189e-15
4.65367e-16
1.19443e-17
2.39255e-19
6.33755e-21
1.90813e-22
6.13977e-24
1.94581e-25
5.82764e-27
1.60122e-28
3.90428e-30
8.11639e-32
1.35412e-33
1.91373e-35
2.16729e-37
1.64432e-39
5.6253e-42
2.29046e-43
2.24734e-13
1.67896e-13
1.82721e-14
3.66647e-16
6.7872e-18
1.67702e-19
4.56444e-21
1.3254e-22
3.87958e-24
1.08876e-25
2.82024e-27
6.45394e-29
1.29264e-30
2.359e-32
3.56614e-34
4.05368e-36
3.03236e-38
6.93872e-41
5.90024e-42
1.13757e-11
6.5852e-12
5.29393e-13
8.64079e-15
1.40378e-16
3.20656e-18
8.30934e-20
2.26546e-21
6.1864e-23
1.62479e-24
3.92802e-26
8.9882e-28
1.92797e-29
3.58008e-31
5.38013e-33
6.07024e-35
4.46202e-37
1.30606e-39
1.1657e-40
9.707e-11
4.69172e-11
4.76252e-12
1.02907e-13
1.7049e-15
3.98607e-17
1.06353e-18
2.86977e-20
7.56965e-22
1.8946e-23
4.59529e-25
1.09199e-26
2.36269e-28
4.3674e-30
6.53164e-32
7.32058e-34
5.3339e-36
1.78044e-38
1.84612e-39
1.64128e-10
8.38007e-11
1.11188e-11
4.10762e-13
1.00705e-14
2.74776e-16
8.12818e-18
2.36219e-19
6.47464e-21
1.64763e-22
4.22573e-24
1.03753e-25
2.26511e-27
4.19636e-29
6.26826e-31
6.99399e-33
5.05813e-35
1.77785e-37
2.36765e-38
1
1
1
1
1
1
1
1
1
1
1
1
1
1
0.878995
0.182556
0.00442302
0.000734357
0.000150716
3.52713e-05
7.72158e-06
2.19009e-05
8.98939e-05
1
1
1
1
1
1
1
1
1
1
1
1
1
0.999998
0.519582
0.0175271
0.00110785
0.000179198
2.86387e-05
5.96426e-06
1.06281e-06
2.79615e-06
1.66296e-05
1
1
1
1
1
1
1
1
1
1
1
1
1
0.948594
0.208669
0.00226658
0.000261388
3.95922e-05
7.00961e-06
1.3495e-06
2.63802e-07
4.29945e-07
2.80237e-06
1
1
1
1
1
1
1
1
1
1
1
1
1
0.750897
0.0623283
0.000643698
5.69975e-05
1.10052e-05
4.40164e-06
7.65347e-07
7.29961e-08
6.12773e-08
4.30603e-07
1
1
1
1
1
1
1
1
1
1
1
1
1
0.527042
0.00980861
0.000153592
1.16612e-05
3.97261e-06
2.07455e-06
5.09412e-07
2.80387e-08
9.25001e-09
6.14638e-08
1
1
1
1
1
1
1
1
1
1
1
1
1
0.321487
0.00104633
3.51776e-05
2.43807e-06
1.48667e-06
4.07523e-07
1.82143e-07
1.5771e-08
2.13026e-09
9.25228e-09
1
1
1
1
1
1
1
1
1
1
1
1
0.927671
0.190103
0.000374021
6.825e-06
7.03443e-07
4.34673e-07
5.1725e-08
2.50325e-08
8.45743e-09
1.16503e-09
1.84396e-09
1
1
1
1
1
1
1
1
1
1
1
1
0.838368
0.103184
7.73818e-05
1.08672e-06
3.58123e-07
1.21118e-07
1.65231e-08
3.38232e-09
3.23112e-09
9.96063e-10
5.2814e-10
1
1
1
1
1
1
1
1
1
1
1
1
0.735664
0.0474647
8.27466e-06
1.54972e-07
7.57244e-08
3.4759e-08
7.95507e-09
1.87399e-09
1.3436e-09
6.18059e-10
1.80318e-10
1
1
1
1
1
1
1
1
1
1
1
0.999999
0.615367
0.0154863
6.35757e-07
2.36974e-08
1.35552e-08
1.09757e-08
3.47995e-09
1.09058e-09
5.82952e-10
2.65863e-10
9.34835e-11
1
1
1
1
1
1
1
0.999999
0.999999
0.999999
0.999998
0.999996
0.469703
0.00171679
9.27011e-08
3.12599e-08
2.90293e-08
5.48724e-09
1.27681e-09
5.07852e-10
2.17318e-10
8.20388e-11
2.72026e-11
0.999999
0.999998
0.999998
0.999998
0.999997
0.999997
0.999996
0.999995
0.999993
0.99999
0.999986
0.999969
0.314061
2.76045e-05
3.58263e-07
3.53553e-07
3.35127e-08
1.60503e-09
5.24092e-10
1.97527e-10
6.85231e-11
2.07601e-11
5.47324e-12
0.999986
0.999984
0.999983
0.999981
0.999978
0.999974
0.999967
0.999958
0.999946
0.999925
0.999898
0.999784
0.208016
2.58061e-06
2.07241e-07
3.97821e-07
2.94919e-08
1.95468e-10
2.49056e-10
7.1211e-11
1.927e-11
4.73582e-12
1.0202e-12
0.999876
0.99986
0.999854
0.999838
0.999814
0.99978
0.999734
0.999671
0.999588
0.999447
0.999275
0.998504
0.176313
2.09186e-07
2.55992e-08
1.4861e-08
1.72298e-09
1.34608e-10
8.67338e-11
2.1837e-11
5.28503e-12
1.03564e-12
1.79754e-13
0.99889
0.998789
0.998737
0.998613
0.998433
0.998186
0.997859
0.997424
0.996877
0.994751
0.988289
0.922772
0.202139
0.00190183
1.99117e-07
2.51564e-08
2.64592e-09
5.0402e-11
6.66559e-12
5.25151e-12
1.54046e-12
2.36691e-13
3.12733e-14
0.87822
0.870173
0.862412
0.848406
0.828788
0.80304
0.770351
0.729126
0.681024
0.596641
0.50893
0.281936
0.198504
0.0206939
7.10963e-05
3.49533e-06
7.09516e-08
9.2241e-10
4.92021e-12
5.81577e-13
6.22414e-13
6.53804e-14
5.58486e-15
0.183495
0.174595
0.165865
0.151682
0.133746
0.112762
0.0898814
0.066721
0.0448507
0.0144042
2.12932e-08
2.45225e-07
0.0076741
0.0340836
0.00338938
5.45786e-06
9.90537e-08
3.47966e-10
6.06188e-13
1.52983e-13
1.71235e-13
1.85742e-14
1.03342e-15
4.6588e-21
4.2376e-21
5.13415e-21
1.09282e-19
5.67046e-18
1.92063e-16
4.97882e-15
1.24542e-13
2.48727e-12
4.96469e-11
1.10469e-09
2.12932e-08
2.45225e-07
0.00760413
0.00565782
2.89979e-05
6.17518e-07
1.6471e-08
-1.29753e-13
9.61675e-14
1.1886e-13
5.06831e-15
1.77908e-16
1.06035e-20
1.11968e-20
2.70996e-19
2.62036e-17
1.12797e-15
2.21907e-14
6.52159e-13
5.49977e-12
8.72315e-11
2.73377e-09
7.17675e-08
1.04087e-06
1.11827e-05
2.1653e-05
0.00419615
1.76046e-07
2.4831e-09
3.19947e-10
7.29426e-14
9.17572e-14
9.54142e-14
1.09336e-15
2.47543e-17
1.27498e-20
1.31073e-20
6.29462e-19
1.33483e-16
5.01609e-15
5.9744e-14
1.38142e-12
2.71047e-12
6.59939e-11
1.6171e-09
3.2201e-08
1.02511e-06
1.9821e-05
0.000988743
0.00189136
2.41722e-08
3.56749e-11
4.2983e-13
2.28668e-14
3.91753e-14
4.62313e-14
1.45772e-16
2.67346e-18
8.50569e-21
4.2455e-21
9.30482e-20
1.94364e-16
6.44096e-15
2.22985e-14
4.34168e-14
-2.9053e-15
2.88903e-12
4.51823e-11
6.4719e-10
8.32265e-06
9.53489e-05
7.53795e-05
4.38234e-06
2.46983e-09
9.39667e-12
-3.49832e-12
2.40622e-15
4.93899e-15
7.35964e-15
1.15793e-17
2.41073e-19
0
-2.21148e-37
0
5.29418e-18
3.03239e-15
2.03485e-14
1.57368e-14
-1.71764e-16
-4.08387e-14
-9.63281e-15
5.97515e-12
8.39003e-11
1.57953e-09
5.34916e-09
1.45619e-08
1.57663e-10
-1.07237e-11
-8.42964e-14
-6.35267e-16
5.26107e-16
2.81229e-16
7.00364e-19
1.94158e-20
-6.71133e-22
-5.05862e-20
-1.80867e-18
-4.02877e-17
-6.07671e-16
-6.34219e-15
-4.49202e-14
-2.00223e-13
-4.03117e-13
-7.72956e-15
-3.48439e-14
2.0892e-12
9.69389e-12
3.22771e-11
1.99151e-10
7.80343e-12
-1.10413e-12
-2.30715e-14
-1.7427e-13
8.16084e-17
4.71573e-18
3.69318e-20
1.39402e-21
-7.01466e-22
-5.40558e-20
-2.00491e-18
-4.71015e-17
-7.69349e-16
-9.0389e-15
-7.64945e-14
-4.54727e-13
-1.78831e-12
-4.05941e-12
-3.10655e-12
9.85364e-13
2.78617e-12
1.0208e-11
2.14678e-11
2.27616e-12
7.11998e-15
-6.22871e-14
-1.26105e-13
4.71108e-18
6.05311e-20
1.21713e-21
8.71146e-23
-1.55777e-24
-5.51394e-23
-6.85225e-22
-2.25981e-21
-3.54136e-31
-9.20041e-30
-1.02615e-27
8.51709e-18
3.91395e-16
1.2458e-14
1.03095e-12
3.26388e-11
1.7958e-10
2.94159e-10
2.47352e-10
2.70491e-13
4.20498e-15
-1.8076e-14
-3.84877e-14
7.41724e-20
3.70312e-22
2.21577e-23
4.43956e-24
-6.07392e-29
-2.12582e-43
0
-4.78905e-38
7.96501e-25
3.2147e-23
1.05992e-21
2.92114e-20
6.89536e-19
1.41419e-17
1.52263e-14
5.53809e-13
3.53039e-12
6.72951e-12
5.34141e-12
8.82817e-14
2.26945e-14
-8.23871e-15
-6.56298e-15
8.54041e-21
1.42461e-23
1.53143e-24
2.2266e-25
0
5.76128e-34
6.34278e-32
4.61639e-30
2.48847e-28
1.05912e-26
-4.52377e-25
-1.70172e-23
-5.67095e-22
-1.13602e-20
1.2902e-16
5.81691e-15
4.21474e-14
8.16676e-14
7.79384e-14
8.69922e-15
1.00011e-14
-1.59717e-15
-6.93279e-16
1.26402e-21
6.5066e-25
1.49859e-25
1.289e-26
0
0
8.67309e-35
6.20467e-33
3.38892e-31
-1.3497e-28
-5.04527e-27
-1.66331e-25
-3.38498e-24
-5.48197e-23
8.59757e-21
1.21472e-18
5.18064e-17
4.88682e-16
1.16182e-15
1.22322e-15
5.83029e-17
-1.3129e-16
-4.75787e-17
7.07042e-23
6.61618e-26
1.04475e-26
7.93566e-28
-1.92028e-36
-4.13179e-35
-3.39338e-37
-5.00569e-35
-5.08585e-32
-2.04162e-30
-7.59768e-29
-1.77462e-27
-3.20538e-26
-1.22289e-25
1.55239e-23
2.96696e-21
1.90867e-19
2.73996e-18
8.27857e-18
9.20987e-18
-2.17544e-19
-5.0698e-18
-2.1628e-18
2.92686e-24
1.43469e-26
6.34729e-28
4.80982e-29
-1.4486e-38
-6.29324e-37
-9.24601e-36
-3.05108e-35
-1.52018e-49
9.04308e-37
4.14274e-35
1.62801e-33
5.51426e-32
1.69439e-30
6.07025e-27
2.21487e-24
1.99527e-22
4.15746e-21
1.56924e-20
1.82661e-20
-1.17998e-20
-9.11117e-20
-6.50279e-20
1.20758e-25
1.02793e-27
3.50806e-29
2.43338e-30
0
2.95017e-60
-1.23795e-77
2.16126e-76
8.94159e-42
5.45183e-40
2.77455e-38
1.15765e-36
4.41894e-35
1.51572e-33
1.92407e-31
1.52283e-28
8.47837e-27
7.05399e-25
2.043e-23
8.70095e-23
6.49555e-23
-6.63839e-22
-1.2633e-21
4.1895e-27
4.65889e-29
1.68139e-30
9.85393e-32
2.40067e-55
8.09579e-53
1.3658e-50
1.52534e-48
1.17894e-46
7.30128e-45
-1.35824e-41
-6.94161e-40
-3.58959e-38
-9.40106e-37
3.16877e-35
1.05001e-31
8.98574e-30
9.4981e-28
4.06416e-26
2.40429e-25
2.85663e-25
-1.38301e-24
-1.49693e-23
8.28609e-29
1.82574e-30
6.75296e-32
3.48007e-33
6.8382e-59
2.60878e-56
4.77499e-54
5.67403e-52
4.77192e-50
-4.25766e-47
-2.01599e-45
-1.1057e-43
-3.74281e-42
-8.91579e-41
2.67915e-39
1.34368e-36
1.94189e-34
1.72264e-32
2.97595e-30
3.48827e-29
-1.55742e-28
-6.54471e-27
-9.47916e-26
9.54989e-31
5.26297e-32
1.86211e-33
1.08016e-34
4.46403e-63
-3.17758e-59
-1.23461e-56
-2.3241e-54
-2.22761e-51
-9.27168e-50
-5.60353e-48
-2.24456e-46
-7.15649e-45
-7.92802e-44
6.75111e-43
8.79769e-41
1.48547e-37
1.32403e-35
3.0427e-33
1.46389e-31
4.46109e-31
-1.14098e-29
-2.13224e-28
8.85805e-33
9.06846e-34
4.20942e-35
3.10691e-36
-4.34928e-64
-1.94296e-61
-4.24955e-59
-6.16708e-57
1.56108e-59
1.61227e-57
1.40342e-55
1.06271e-53
6.03975e-52
3.5397e-50
2.27874e-48
2.37646e-46
3.13507e-42
3.73013e-39
6.22253e-37
9.00504e-35
1.57491e-33
3.96384e-33
-1.12666e-34
6.82678e-35
1.2522e-35
8.62099e-37
8.48083e-38
6.04773e-73
3.67623e-70
1.11141e-67
2.24542e-65
3.42249e-63
4.21126e-61
4.37203e-59
3.80959e-57
3.06792e-55
2.23425e-53
2.42292e-51
1.72161e-49
1.18322e-47
1.00104e-44
1.75693e-42
2.32117e-40
4.77824e-38
1.24867e-36
3.88023e-36
3.60474e-37
1.56618e-37
1.57643e-38
2.05207e-39
6.56896e-78
4.88904e-75
1.81134e-72
4.46737e-70
8.26221e-68
1.22628e-65
-6.97171e-63
-6.52605e-61
-7.10922e-59
-3.52696e-57
1.83554e-55
1.91423e-53
1.43243e-51
1.52807e-49
7.6323e-46
2.54732e-43
9.16251e-41
3.51565e-39
1.33973e-38
1.252e-39
1.73271e-39
2.56743e-40
4.50871e-41
3.03407e-83
2.89089e-80
1.96227e-78
-4.42741e-75
-2.50986e-72
-1.85046e-68
-1.7969e-66
-2.21707e-64
-1.66421e-62
-8.90684e-61
1.06706e-59
1.43131e-57
1.39208e-55
1.30062e-53
1.74354e-51
2.30518e-47
1.55228e-44
2.11815e-42
2.41059e-41
4.34869e-41
1.22286e-41
3.77741e-42
9.2493e-43
1.39187e-88
-1.21913e-83
-1.16536e-80
-5.42997e-78
-9.98751e-75
-9.92602e-73
-1.51209e-70
-1.50245e-68
-1.17326e-66
-3.06172e-65
1.50617e-63
2.36793e-61
3.22719e-59
4.29545e-57
5.59054e-55
8.37488e-53
8.07975e-49
6.43102e-46
4.90299e-44
2.8826e-43
8.32491e-44
5.1036e-44
1.90509e-44
-2.94211e-90
-3.87466e-87
-2.49934e-84
-1.06648e-81
9.51873e-84
4.20482e-81
1.57073e-78
5.12523e-76
1.48181e-73
3.9694e-71
1.32624e-68
4.33456e-66
9.65799e-64
2.08416e-61
4.48947e-59
9.626e-57
1.48429e-53
5.41941e-49
1.34916e-46
1.31039e-45
8.24606e-46
6.4108e-46
4.429e-46
6.97731e-109
5.9308e-105
2.08275e-101
4.75334e-98
-4.76462e-95
-2.59915e-90
-3.86821e-87
-1.04099e-81
-3.54163e-79
-1.42204e-76
-2.23862e-75
6.52052e-74
6.76223e-71
4.97261e-68
3.19665e-65
2.0027e-62
1.13147e-58
5.13747e-53
9.53996e-50
3.64309e-48
7.73337e-48
1.15693e-47
8.71105e-48
0
0
3.73022e-117
-1.85743e-106
-7.4312e-102
-3.36294e-98
-1.20126e-92
-1.24394e-89
-1.52569e-86
-8.14956e-84
-1.03613e-82
-2.8642e-83
-5.20901e-87
-9.68422e-84
-2.31376e-81
-1.26933e-78
-2.6326e-75
3.28189e-60
2.48525e-54
2.46381e-51
5.19437e-50
2.23641e-48
5.02362e-48
0.000227455
1.16184e-06
1.55666e-08
4.49598e-10
0.000117751
1.00359e-05
2.58742e-08
1.60382e-09
2.11258e-05
3.4069e-06
1.44617e-08
1.05154e-09
1.66415e-06
2.98004e-07
2.14117e-09
1.68703e-10
9.93258e-08
1.15548e-08
3.18989e-10
4.58092e-11
6.01379e-09
8.56849e-10
9.76483e-11
2.97763e-11
7.34647e-10
1.95527e-10
6.18722e-11
9.18581e-12
2.40794e-10
1.08577e-10
1.92191e-11
1.76373e-12
1.17248e-10
3.09647e-11
3.51865e-12
3.13951e-13
3.26537e-11
5.38004e-12
5.86114e-13
5.14554e-14
6.48287e-12
8.93675e-13
9.11781e-14
7.91685e-15
1.14481e-12
1.3808e-13
1.34996e-14
1.15329e-15
1.85741e-13
2.0313e-14
1.91248e-15
1.59152e-16
2.87362e-14
2.87424e-15
2.59026e-16
2.08171e-17
4.29257e-15
3.89725e-16
3.34309e-17
2.57784e-18
6.18582e-16
5.03486e-17
4.09198e-18
3.00969e-19
8.45186e-17
6.16128e-18
4.71551e-19
3.29084e-20
1.06482e-17
7.0642e-19
5.06771e-20
3.34045e-21
1.21637e-18
7.59213e-20
5.10569e-21
3.15719e-22
1.27265e-19
7.63594e-21
4.86478e-22
2.84501e-23
1.23508e-20
7.21224e-22
4.42589e-23
2.4711e-24
1.10675e-21
6.38579e-23
3.83418e-24
2.06582e-25
9.06556e-23
5.26692e-24
3.13893e-25
1.65158e-26
6.76766e-24
4.03379e-25
2.41992e-26
1.25742e-27
4.61981e-25
2.86915e-26
1.75615e-27
9.10854e-29
2.86386e-26
1.89779e-27
1.20016e-28
6.28015e-30
1.61154e-27
1.16767e-28
7.72993e-30
4.12442e-31
8.34679e-29
6.69e-30
4.69849e-31
2.58304e-32
4.37795e-30
3.56689e-31
2.69989e-32
1.54517e-33
2.22562e-31
1.79159e-32
1.47029e-33
8.84647e-35
1.00909e-32
8.57317e-34
7.59879e-35
4.85899e-36
4.11089e-34
3.89614e-35
3.74415e-36
2.56709e-37
1.53466e-35
1.66434e-36
1.76826e-37
1.30816e-38
5.29068e-37
6.80373e-38
8.02341e-39
6.44866e-40
1.68382e-38
2.67941e-39
3.50996e-40
3.08418e-41
4.98631e-40
1.0196e-40
1.48321e-41
1.43543e-42
1.47588e-41
3.73502e-42
6.07705e-43
6.52163e-44
4.4344e-43
1.31613e-43
2.42424e-44
2.90226e-45
1.28424e-44
4.48099e-45
9.45402e-46
1.2699e-46
3.44956e-46
1.4756e-46
3.61663e-47
5.48588e-48
8.40631e-48
4.57017e-48
1.31911e-48
2.26838e-49
2.14059e-48
5.3478e-49
8.92573e-50
1.26382e-50
7.25146e-11
4.47983e-11
1.11743e-11
8.3122e-13
3.46138e-14
1.51764e-15
6.58571e-17
2.63381e-18
9.63897e-20
3.20357e-21
9.54285e-23
2.50108e-24
5.61165e-26
1.03772e-27
1.50738e-29
1.57737e-31
9.69367e-34
2.80952e-36
2.72997e-37
1.92379e-10
2.43688e-11
6.90992e-12
7.06062e-13
3.36027e-14
1.59693e-15
7.44335e-17
3.19297e-18
1.24687e-19
4.39027e-21
1.37632e-22
3.78362e-24
8.97655e-26
1.79892e-27
2.92398e-29
3.62257e-31
3.08335e-33
1.50271e-35
2.04186e-36
7.52295e-11
1.25582e-11
3.62173e-12
3.33892e-13
1.71506e-14
9.23204e-16
4.73871e-17
2.18874e-18
9.05462e-20
3.3542e-21
1.1045e-22
3.19357e-24
7.96688e-26
1.67514e-27
2.88084e-29
3.89625e-31
3.9002e-33
2.51366e-35
1.208e-36
1.60723e-11
6.57284e-12
1.21368e-12
9.72359e-14
5.66144e-15
3.21306e-16
1.73619e-17
8.47994e-19
3.70529e-20
1.445e-21
4.99701e-23
1.51669e-24
3.97705e-26
8.81356e-28
1.60876e-29
2.31477e-31
2.4328e-33
1.62065e-35
4.04767e-37
4.00569e-12
1.68205e-12
2.8156e-13
2.43954e-14
1.56999e-15
9.21195e-17
5.06442e-18
2.51708e-19
1.12034e-20
4.45091e-22
1.56711e-23
4.83875e-25
1.29142e-26
2.92028e-28
5.44454e-30
8.02728e-32
8.73899e-34
6.10124e-36
1.083e-37
1.55599e-12
3.71182e-13
6.15702e-14
5.7269e-15
3.86269e-16
2.34463e-17
1.31842e-18
6.66999e-20
3.01482e-21
1.21439e-22
4.33057e-24
1.35318e-25
3.65345e-27
8.36007e-29
1.57729e-30
2.35601e-32
2.6115e-34
1.88629e-36
2.59168e-38
2.13903e-13
7.76287e-14
1.32112e-14
1.21937e-15
8.40247e-17
5.25398e-18
3.02014e-19
1.55712e-20
7.16375e-22
2.93349e-23
1.06245e-24
3.37007e-26
9.2345e-28
2.14483e-29
4.11009e-31
6.24356e-33
7.05203e-35
5.23026e-37
5.54778e-39
3.6649e-14
1.53536e-14
2.56108e-15
2.32144e-16
1.62865e-17
1.04248e-18
6.09468e-20
3.19122e-21
1.49082e-22
6.19584e-24
2.27636e-25
7.32265e-27
2.03489e-28
4.79446e-30
9.32689e-32
1.44003e-33
1.65584e-35
1.25573e-37
1.06323e-39
7.37411e-15
2.82732e-15
4.46818e-16
4.00623e-17
2.85696e-18
1.85982e-19
1.10051e-20
5.82925e-22
2.75543e-23
1.15858e-24
4.30576e-26
1.401e-27
3.93848e-29
9.39104e-31
1.85009e-32
2.89576e-34
3.38055e-36
2.61169e-38
1.83632e-40
1.44773e-15
4.80551e-16
7.14942e-17
6.35529e-18
4.58865e-19
3.02127e-20
1.80242e-21
9.62593e-23
4.5895e-24
1.94668e-25
7.29854e-27
2.39604e-28
6.79788e-30
1.63662e-31
3.25776e-33
5.15716e-35
6.09738e-37
4.784e-39
2.87886e-41
2.61481e-16
7.57469e-17
1.06278e-17
9.34329e-19
6.79861e-20
4.50728e-21
2.70185e-22
1.45055e-23
6.95661e-25
2.96895e-26
1.12028e-27
3.70254e-29
1.05796e-30
2.56673e-32
5.15247e-34
8.23384e-36
9.83976e-38
7.82135e-40
4.12167e-42
4.36151e-17
1.11607e-17
1.4763e-18
1.27903e-19
9.34121e-21
6.21199e-22
3.73039e-23
2.0079e-24
9.66192e-26
4.13948e-27
1.56869e-28
5.20927e-30
1.49642e-31
3.65229e-33
7.38177e-35
1.18891e-36
1.43373e-38
1.15228e-40
5.41519e-43
6.80147e-18
1.54464e-18
1.92088e-19
1.63522e-20
1.19464e-21
7.94269e-23
4.76573e-24
2.56576e-25
1.23609e-26
5.30573e-28
2.01566e-29
6.71444e-31
1.93614e-32
4.74713e-34
9.6472e-36
1.56393e-37
1.90062e-39
1.54203e-41
6.57185e-44
9.97881e-19
2.01012e-19
2.34229e-20
1.95575e-21
1.42529e-22
9.44802e-24
5.65212e-25
3.03784e-26
1.46266e-27
6.27996e-29
2.38827e-30
7.97002e-32
2.30417e-33
5.66909e-35
1.15718e-36
1.88627e-38
2.30773e-40
1.88769e-42
7.60709e-45
1.38079e-19
2.45553e-20
2.67373e-21
2.1893e-22
1.58815e-23
1.04738e-24
6.23733e-26
3.34202e-27
1.60608e-28
6.88961e-30
2.62012e-31
8.75132e-33
2.53448e-34
6.25244e-36
1.28095e-37
2.09797e-39
2.58198e-41
2.12729e-43
8.51986e-46
1.80262e-20
2.80574e-21
2.85129e-22
2.29292e-23
1.65322e-24
1.08319e-25
6.41525e-27
3.42383e-28
1.64101e-29
7.0282e-31
2.67115e-32
8.92458e-34
2.58789e-35
6.39837e-37
1.31508e-38
2.16312e-40
2.67662e-42
2.21981e-44
9.00884e-47
2.2155e-21
2.98277e-22
2.83467e-23
2.24517e-24
1.60754e-25
1.04578e-26
6.15809e-28
3.27277e-29
1.56401e-30
6.68611e-32
2.53903e-33
8.48433e-35
2.46292e-36
6.1019e-38
1.25797e-39
2.0776e-41
2.58399e-43
2.15634e-45
8.83967e-48
2.55091e-22
2.92814e-23
2.62387e-24
2.05391e-25
1.45989e-26
9.43205e-28
5.52427e-29
2.92442e-30
1.39377e-31
5.94867e-33
2.25756e-34
7.54615e-36
2.19329e-37
5.44565e-39
1.12615e-40
1.8674e-42
2.33421e-44
1.95964e-46
8.0734e-49
2.59339e-23
2.6305e-24
2.26183e-25
1.75321e-26
1.23801e-27
7.95421e-29
4.6385e-30
2.44785e-31
1.16431e-32
4.96433e-34
1.88383e-35
6.30191e-37
1.83467e-38
4.56656e-40
9.47493e-42
1.5777e-43
1.98204e-45
1.67387e-47
6.91853e-50
2.3439e-24
2.18997e-25
1.8334e-26
1.4034e-27
9.82989e-29
6.27988e-30
3.64988e-31
1.92334e-32
9.14204e-34
3.89812e-35
1.48035e-36
4.95959e-38
1.44714e-39
3.6127e-41
7.52352e-43
1.25831e-44
1.58897e-46
1.3499e-48
5.59443e-51
1.94158e-25
1.74359e-26
1.43135e-27
1.07537e-28
7.42038e-30
4.69561e-31
2.71377e-32
1.42583e-33
6.77062e-35
2.88823e-36
1.09886e-37
3.6913e-39
1.08046e-40
2.70714e-42
5.66135e-44
9.51382e-46
1.20786e-47
1.03231e-49
4.28642e-52
1.53123e-26
1.3488e-27
1.08892e-28
8.04091e-30
5.47133e-31
3.42366e-32
1.95507e-33
1.01532e-34
4.79752e-36
2.04176e-37
7.76736e-39
2.61299e-40
7.67031e-42
1.92898e-43
4.0519e-45
6.8442e-47
8.73924e-49
7.51555e-51
3.12288e-53
1.16246e-27
1.01153e-28
8.07915e-30
5.90544e-31
3.97911e-32
2.46398e-33
1.39018e-34
7.1396e-36
3.34989e-37
1.41602e-38
5.3474e-40
1.79047e-41
5.25499e-43
1.3235e-44
2.78783e-46
4.72747e-48
6.06551e-50
5.245e-52
2.17845e-54
8.45953e-29
7.31828e-30
5.8198e-31
4.2352e-32
2.83904e-33
1.74721e-34
9.79135e-36
4.99569e-37
2.32862e-38
9.77264e-40
3.66398e-41
1.2205e-42
3.57374e-44
8.98717e-46
1.89178e-47
3.20873e-49
4.12244e-51
3.5756e-53
1.48307e-55
5.8937e-30
5.10316e-31
4.06049e-32
2.95346e-33
1.97722e-34
1.21431e-35
6.78699e-37
3.45278e-38
1.60402e-39
6.70753e-41
2.50675e-42
8.32728e-44
2.43271e-45
6.10613e-47
1.28385e-48
2.17727e-50
2.80051e-52
2.4363e-54
1.0091e-56
3.93841e-31
3.43355e-32
2.7449e-33
2.00256e-34
1.34307e-35
8.255e-37
4.6134e-38
2.34586e-39
1.08917e-40
4.55102e-42
1.69972e-43
5.64346e-45
1.6481e-46
4.13677e-48
8.70307e-50
1.47798e-51
1.90532e-53
1.66383e-55
6.8803e-58
2.52999e-32
2.23199e-33
1.79963e-34
1.32131e-35
8.90339e-37
5.49039e-38
3.07506e-39
1.56607e-40
7.28038e-42
3.04474e-43
1.13801e-44
3.78178e-46
1.10569e-47
2.77911e-49
5.85678e-51
9.96775e-53
1.28846e-54
1.12972e-56
4.66056e-59
1.56589e-33
1.40383e-34
1.14557e-35
8.49062e-37
5.76369e-38
3.5746e-39
2.01088e-40
1.02772e-41
4.79151e-43
2.00852e-44
7.52217e-46
2.50455e-47
7.33724e-49
1.84791e-50
3.90276e-52
6.65817e-54
8.63002e-56
7.59653e-58
3.1238e-60
9.36099e-35
8.55793e-36
7.08951e-37
5.3189e-38
3.64641e-39
2.27955e-40
1.29067e-41
6.63169e-43
3.10573e-44
1.30673e-45
4.90965e-47
1.63945e-48
4.8159e-50
1.21601e-51
2.57467e-53
4.4037e-55
5.72327e-57
5.05647e-59
2.07102e-61
5.41961e-36
5.06652e-37
4.2722e-38
3.25238e-39
2.2568e-40
1.42502e-41
8.13587e-43
4.20977e-44
1.98323e-45
8.38639e-47
3.16461e-48
1.06077e-49
3.12665e-51
7.91908e-53
1.68151e-54
2.88386e-56
3.75796e-58
3.33148e-60
1.35808e-62
3.04721e-37
2.91922e-38
2.51126e-39
1.94409e-40
1.36811e-41
8.74167e-43
5.04109e-44
2.63072e-45
1.24836e-46
5.31159e-48
2.01501e-49
6.78547e-51
2.00813e-52
5.10418e-54
1.08721e-55
1.86988e-57
2.44289e-59
2.17238e-61
8.80782e-64
1.66839e-38
1.64055e-39
1.44261e-40
1.1378e-41
8.135e-43
5.2686e-44
3.07346e-45
1.61979e-46
7.75155e-48
3.32207e-49
1.26809e-50
4.29304e-52
1.27635e-53
3.25692e-55
6.96076e-57
1.20062e-58
1.57238e-60
1.40211e-62
5.65021e-65
8.91735e-40
9.01188e-41
8.1145e-42
6.53134e-43
4.75192e-44
3.12404e-45
1.84604e-46
9.83727e-48
4.7526e-49
2.05346e-50
7.89321e-52
2.68814e-53
8.03245e-55
2.05841e-56
4.41486e-58
7.63694e-60
1.00247e-61
8.96037e-64
3.58652e-66
4.66289e-41
4.84889e-42
4.47781e-43
3.68383e-44
2.73132e-45
1.82522e-46
1.09385e-47
5.90016e-49
2.88043e-50
1.25574e-51
4.86391e-53
1.66723e-54
5.00908e-56
1.28944e-57
2.77569e-59
4.81521e-61
6.33418e-63
5.67285e-65
2.25398e-67
2.38979e-42
2.56052e-43
2.42889e-44
2.04536e-45
1.54752e-46
1.05246e-47
6.40394e-49
3.49977e-50
1.72795e-51
7.60621e-53
2.97043e-54
1.02527e-55
3.09814e-57
8.01279e-59
1.73129e-60
3.01184e-62
3.9696e-64
3.5607e-66
1.4036e-68
1.20247e-43
1.3296e-44
1.29765e-45
1.12013e-46
8.65929e-48
6.00028e-49
3.71054e-50
2.05629e-51
1.02751e-52
4.56957e-54
1.80011e-55
6.25861e-57
1.90262e-58
4.94462e-60
1.07237e-61
1.87062e-63
2.46972e-65
2.21786e-67
8.66922e-70
5.95012e-45
6.80308e-46
6.84282e-47
6.06339e-48
4.7951e-49
3.38888e-50
2.1317e-51
1.19879e-52
6.0662e-54
2.72692e-55
1.08401e-56
3.79743e-58
1.16157e-59
3.03361e-61
6.60371e-63
1.15493e-64
1.52712e-66
1.37239e-68
5.31696e-71
2.90116e-46
3.43777e-47
3.56988e-48
3.25166e-49
2.63359e-50
1.9001e-51
1.21669e-52
6.94752e-54
3.56191e-55
1.61907e-56
6.49652e-58
2.2935e-59
7.05963e-61
1.85283e-62
4.04812e-64
7.09719e-66
9.3964e-68
8.44705e-70
3.24235e-72
1.39727e-47
1.72022e-48
1.84736e-49
1.73198e-50
1.43807e-51
1.06004e-52
6.91389e-54
4.01058e-55
2.08399e-56
9.58111e-58
3.88115e-59
1.38095e-60
4.27761e-62
1.12818e-63
2.47367e-65
4.34678e-67
5.76102e-69
5.17857e-71
1.96982e-73
6.66918e-49
8.55325e-50
9.51337e-51
9.19018e-52
7.82871e-53
5.89905e-54
3.92053e-55
2.31087e-56
1.21726e-57
5.66107e-59
2.31525e-60
8.30264e-62
2.58795e-63
6.85828e-65
1.5089e-66
2.65703e-68
3.52437e-70
3.16658e-72
1.15901e-74
3.05403e-50
4.11985e-51
4.80137e-52
4.81893e-53
4.23964e-54
3.28242e-55
2.2318e-56
1.34095e-57
7.16384e-59
3.37066e-60
1.39187e-61
5.03066e-63
1.57784e-64
4.20112e-66
9.2733e-68
1.63609e-69
2.17146e-71
1.94939e-73
4.46755e-76
1.64129e-51
1.9119e-52
1.96255e-53
1.78587e-54
1.44846e-55
1.05417e-56
6.83577e-58
3.95753e-59
2.13622e-60
1.01782e-61
4.247e-63
1.5481e-64
4.88856e-66
1.30837e-67
2.8987e-69
5.12584e-71
6.80935e-73
6.10998e-75
4.22225e-76
)
;

boundaryField
{
    leftWall
    {
        type            zeroGradient;
    }
    rightWall
    {
        type            zeroGradient;
    }
    lowerWall
    {
        type            zeroGradient;
    }
    atmosphere
    {
        type            inletOutlet;
        inletValue      uniform 0;
        value           nonuniform List<scalar> 
46
(
0
0
0
0
0
0
0
0
0
0
0
0
0
0
0
0
0
0
0
0
5.19437e-50
2.23641e-48
5.02362e-48
2.14059e-48
5.3478e-49
8.92573e-50
1.26382e-50
1.64129e-51
1.9119e-52
1.96255e-53
1.78587e-54
1.44846e-55
1.05417e-56
6.83577e-58
3.95753e-59
2.13622e-60
1.01782e-61
4.247e-63
1.5481e-64
4.88856e-66
1.30837e-67
2.8987e-69
5.12584e-71
6.80935e-73
6.10998e-75
4.22225e-76
)
;
    }
    defaultFaces
    {
        type            empty;
    }
}


// ************************************************************************* //
