/*--------------------------------*- C++ -*----------------------------------*\
| =========                 |                                                 |
| \\      /  F ield         | OpenFOAM: The Open Source CFD Toolbox           |
|  \\    /   O peration     | Version:  2206                                  |
|   \\  /    A nd           | Website:  www.openfoam.com                      |
|    \\/     M anipulation  |                                                 |
\*---------------------------------------------------------------------------*/
FoamFile
{
    version     2.0;
    format      ascii;
    arch        "LSB;label=32;scalar=64";
    class       surfaceScalarField;
    location    "0.1";
    object      alphaPhi0.water;
}
// * * * * * * * * * * * * * * * * * * * * * * * * * * * * * * * * * * * * * //

dimensions      [0 3 -1 0 0 0 0];

oriented        oriented;

internalField   nonuniform List<scalar> 
4432
(
4.71507e-06
-4.71506e-06
1.04317e-05
-5.71661e-06
1.59615e-05
-5.52988e-06
2.15132e-05
-5.5516e-06
2.72636e-05
-5.75047e-06
3.32935e-05
-6.02986e-06
3.96725e-05
-6.37904e-06
4.64659e-05
-6.79339e-06
5.37931e-05
-7.32715e-06
6.17089e-05
-7.91582e-06
7.03488e-05
-8.63983e-06
7.98364e-05
-9.48761e-06
9.05071e-05
-1.06707e-05
0.000102546
-1.20392e-05
0.000114807
-1.2261e-05
0.000124379
-9.93535e-06
0.000130567
-6.44735e-06
0.000135602
-5.40724e-06
0.000140167
-4.92206e-06
6.09224e-05
3.6521e-07
5.88406e-06
5.44781e-06
1.8131e-06
2.6298e-06
3.71926e-07
4.73252e-06
-9.44761e-06
1.04344e-05
-1.14185e-05
1.59645e-05
-1.10599e-05
2.15158e-05
-1.1103e-05
2.72606e-05
-1.14953e-05
3.32821e-05
-1.20513e-05
3.96482e-05
-1.27452e-05
4.64322e-05
-1.35773e-05
5.37325e-05
-1.46274e-05
6.16208e-05
-1.58042e-05
7.02639e-05
-1.72829e-05
7.97277e-05
-1.89514e-05
9.01569e-05
-2.11e-05
0.000101885
-2.37686e-05
0.000114565
-2.49456e-05
0.000126782
-2.2154e-05
0.000134553
-1.6496e-05
0.000126463
-1.23036e-05
9.4322e-05
-8.51494e-06
4.11826e-05
-2.05348e-06
6.12354e-06
3.61123e-06
2.97309e-06
4.1963e-06
1.90385e-06
4.7287e-06
-1.41763e-05
1.03921e-05
-1.70819e-05
1.58914e-05
-1.65592e-05
2.14149e-05
-1.66265e-05
2.71275e-05
-1.72079e-05
3.31121e-05
-1.80359e-05
3.94352e-05
-1.90683e-05
4.61731e-05
-2.03152e-05
5.3413e-05
-2.18672e-05
6.12388e-05
-2.36301e-05
6.98403e-05
-2.58843e-05
7.92397e-05
-2.83508e-05
8.9501e-05
-3.13613e-05
0.000101077
-3.53448e-05
0.000114191
-3.80599e-05
0.000128432
-3.63965e-05
0.000135646
-3.01344e-05
8.24024e-05
-2.10268e-05
1.46524e-05
-3.49102e-06
9.86405e-06
-2.98129e-08
8.97789e-06
4.3518e-07
3.51205e-06
3.75888e-06
3.83196e-06
4.71709e-06
-1.88934e-05
1.03293e-05
-2.26941e-05
1.57827e-05
-2.20126e-05
2.12644e-05
-2.21082e-05
2.69312e-05
-2.28748e-05
3.28638e-05
-2.39685e-05
3.9127e-05
-2.53314e-05
4.57977e-05
-2.69859e-05
5.29583e-05
-2.90277e-05
6.06992e-05
-3.1371e-05
6.92169e-05
-3.44021e-05
7.85278e-05
-3.76617e-05
8.87028e-05
-4.15363e-05
0.00010029
-4.69323e-05
0.000113916
-5.16852e-05
0.000128674
-5.11569e-05
0.000111767
-4.56277e-05
2.80371e-05
-1.67423e-05
4.14507e-06
-8.60154e-07
2.72251e-06
5.59358e-08
3.76527e-06
-3.95183e-08
3.20673e-06
9.86287e-07
5.38418e-06
4.69764e-06
-2.3591e-05
1.02455e-05
-2.8242e-05
1.56391e-05
-2.74062e-05
2.10657e-05
-2.75348e-05
2.66736e-05
-2.84826e-05
3.25401e-05
-2.98351e-05
3.87276e-05
-3.1519e-05
4.53143e-05
-3.35726e-05
5.23765e-05
-3.609e-05
6.00145e-05
-3.9009e-05
6.84264e-05
-4.2814e-05
7.76205e-05
-4.68558e-05
8.77121e-05
-5.16279e-05
9.93962e-05
-5.86164e-05
0.000113779
-6.60677e-05
0.000121377
-6.49002e-05
5.55717e-05
-4.43804e-05
3.55787e-06
-5.89265e-06
1.19469e-06
-4.20144e-08
6.84992e-07
5.04764e-08
6.30009e-07
4.93573e-08
1.78425e-06
4.42857e-07
6.7301e-06
4.67216e-06
-2.82632e-05
1.01441e-05
-3.37139e-05
1.54665e-05
-3.27285e-05
2.0828e-05
-3.28964e-05
2.63679e-05
-3.40226e-05
3.21596e-05
-3.56267e-05
3.82631e-05
-3.76225e-05
4.47577e-05
-4.00673e-05
5.17147e-05
-4.3047e-05
5.92418e-05
-4.6536e-05
6.75425e-05
-5.11147e-05
7.66203e-05
-5.59336e-05
8.66013e-05
-6.16088e-05
9.83098e-05
-7.03249e-05
0.000112963
-8.07219e-05
8.92087e-05
-8.12698e-05
9.6277e-06
-2.51806e-05
9.48985e-07
-1.4405e-06
3.33401e-07
4.49502e-08
1.75936e-07
2.58529e-08
1.70178e-07
2.09012e-08
5.08116e-07
2.87041e-07
6.12699e-06
4.64646e-06
-3.29096e-05
1.00286e-05
-3.90961e-05
1.52704e-05
-3.79703e-05
2.0561e-05
-3.8187e-05
2.60282e-05
-3.94898e-05
3.17399e-05
-4.13384e-05
3.77549e-05
-4.36375e-05
4.4151e-05
-4.64633e-05
5.09984e-05
-4.98944e-05
5.84068e-05
-5.39445e-05
6.65722e-05
-5.92801e-05
7.54776e-05
-6.4839e-05
8.52576e-05
-7.13889e-05
9.68831e-05
-8.19504e-05
0.000109136
-9.29797e-05
4.24573e-05
-7.66186e-05
2.14141e-06
-9.08543e-06
1.78545e-07
-2.29924e-07
6.83473e-08
6.55145e-08
3.78825e-08
1.48479e-08
5.68838e-08
3.32926e-09
2.3272e-07
6.42685e-08
2.52215e-06
4.62131e-06
-3.7531e-05
9.8922e-06
-4.43669e-05
1.50443e-05
-4.31225e-05
2.0255e-05
-4.33977e-05
2.56389e-05
-4.48736e-05
3.12575e-05
-4.6957e-05
3.71672e-05
-4.95471e-05
4.34427e-05
-5.27389e-05
5.01487e-05
-5.66003e-05
5.74034e-05
-6.11992e-05
6.53765e-05
-6.72532e-05
7.39868e-05
-7.34494e-05
8.34148e-05
-8.08169e-05
9.47837e-05
-9.33193e-05
9.36876e-05
-9.7247e-05
1.19795e-05
-5.43587e-05
6.94396e-07
-3.95736e-06
6.53199e-08
7.04388e-08
9.07052e-09
5.78258e-08
5.91042e-09
1.00524e-08
1.0786e-08
9.89581e-10
3.75841e-08
2.50916e-08
2.184e-07
6.59969e-26
-1.29436e-25
3.99029e-26
-1.07406e-25
1.56934e-27
-1.10525e-26
3.55561e-29
-2.83075e-28
1.02494e-30
-4.50434e-30
3.32658e-32
-4.48005e-32
1.34352e-33
2.24351e-34
5.38527e-35
2.9897e-35
1.80865e-36
1.68729e-36
5.25137e-38
7.1474e-38
1.32803e-39
2.50649e-39
2.85468e-41
7.43515e-41
5.06306e-43
1.8589e-42
7.12988e-45
3.85543e-44
7.52264e-47
6.44748e-46
5.40355e-49
8.29815e-48
2.17325e-51
7.5866e-50
5.88076e-52
4.06488e-52
1.09094e-52
4.64928e-24
-2.25975e-23
8.80963e-24
-2.51214e-23
3.01527e-25
-2.58157e-24
4.85982e-27
-6.12246e-26
1.28188e-28
-9.21372e-28
3.86651e-30
-8.67298e-30
1.37089e-31
8.88025e-32
5.00241e-33
1.11483e-32
1.60805e-34
5.94455e-34
4.56855e-36
2.42732e-35
1.13717e-37
8.30295e-37
2.40867e-39
2.41694e-38
4.19521e-41
5.93711e-40
5.74482e-43
1.20485e-41
5.77652e-45
1.94881e-43
3.79058e-47
2.3667e-45
1.2719e-49
1.93602e-47
7.24544e-52
8.26719e-50
3.54656e-52
3.09654e-22
-1.92632e-21
6.4412e-22
-2.53988e-21
1.96488e-23
-2.48842e-22
3.04318e-25
-5.52184e-24
7.86385e-27
-7.92001e-26
2.17741e-28
-6.69834e-28
6.60712e-30
8.66779e-30
2.07538e-31
8.16455e-31
6.05735e-33
3.77398e-32
1.6088e-34
1.39669e-33
3.78535e-36
4.43518e-35
7.61441e-38
1.21429e-36
1.25755e-39
2.82078e-38
1.6142e-41
5.4002e-40
1.47379e-43
8.12793e-42
8.70104e-46
8.85063e-44
3.02089e-48
6.93744e-46
8.59083e-51
3.20562e-48
3.47001e-50
1.31059e-20
-1.27304e-19
3.25625e-20
-1.92632e-19
8.85653e-22
-1.60091e-20
1.3098e-23
-3.13185e-22
3.32407e-25
-4.18636e-24
8.69427e-27
-3.00401e-26
2.34112e-28
5.50856e-28
6.4154e-30
3.92353e-29
1.68629e-31
1.57233e-30
4.12269e-33
5.21904e-32
9.04912e-35
1.5184e-33
1.70885e-36
3.86176e-35
2.63352e-38
8.38043e-37
3.18016e-40
1.48729e-38
3.01378e-42
2.18076e-40
1.97774e-44
2.53854e-42
6.92853e-47
2.07733e-44
2.6288e-49
9.36e-47
1.58708e-48
4.66105e-19
-1.46439e-17
1.17467e-18
-1.79429e-17
2.59691e-20
-9.8882e-19
4.03236e-22
-1.38451e-20
1.0141e-23
-1.59339e-22
2.55773e-25
-8.504e-25
6.40689e-27
2.43518e-26
1.58848e-28
1.37469e-27
3.78263e-30
4.87857e-29
8.43474e-32
1.45839e-30
1.70145e-33
3.86142e-32
2.98677e-35
9.00755e-34
4.51941e-37
1.83453e-35
5.80173e-39
3.30384e-37
5.65114e-41
4.98445e-39
3.67891e-43
5.83687e-41
1.22234e-45
4.75473e-43
6.0015e-48
1.88336e-45
4.91816e-47
1.5552e-17
-5.78889e-16
2.5023e-17
-5.30632e-16
5.70961e-19
-3.17262e-17
8.61849e-21
-3.8216e-19
2.14834e-22
-3.60031e-21
5.39327e-24
-1.01357e-23
1.31836e-25
7.29087e-25
3.0851e-27
3.46313e-26
6.83009e-29
1.12807e-27
1.40541e-30
3.11345e-29
2.64365e-32
7.59461e-31
4.57785e-34
1.68434e-32
7.06044e-36
3.41843e-34
8.96741e-38
6.10915e-36
8.62104e-40
9.10676e-38
5.55195e-42
1.05534e-39
1.87157e-44
8.48332e-42
1.15153e-46
3.64078e-44
1.1415e-45
3.84883e-16
-2.0962e-15
1.94604e-16
-1.98279e-15
6.81866e-18
-1.85962e-16
1.05823e-19
-3.03049e-18
2.60025e-21
-2.88595e-20
6.81422e-23
3.92514e-23
1.70363e-24
1.20437e-23
3.97702e-26
5.1991e-25
8.63767e-28
1.65009e-26
1.73569e-29
4.44136e-28
3.26873e-31
1.07268e-29
5.71901e-33
2.39467e-31
8.77059e-35
4.86313e-33
1.10476e-36
8.65419e-35
1.05487e-38
1.28338e-36
6.74248e-41
1.47788e-38
2.29669e-43
1.1799e-40
1.77014e-45
5.28422e-43
2.0644e-44
2.24017e-15
-2.75556e-15
6.07698e-16
-1.57715e-15
2.64957e-17
-1.78432e-16
5.65047e-19
-6.15961e-18
1.50969e-20
-8.52846e-20
4.2929e-22
9.79485e-22
1.16702e-23
9.251e-23
2.92904e-25
4.05726e-24
6.71359e-27
1.3686e-25
1.41888e-28
3.90186e-27
2.8529e-30
1.00923e-28
5.21692e-32
2.39043e-30
8.19682e-34
5.05965e-32
1.04628e-35
9.24492e-34
1.00395e-37
1.39106e-35
6.41111e-40
1.61052e-37
2.19251e-42
1.28323e-39
2.19676e-44
5.83733e-42
2.91336e-43
9.62708e-06
-4.7158e-05
2.04894e-05
-5.52292e-05
3.10684e-05
-5.37015e-05
4.18021e-05
-5.41314e-05
5.28882e-05
-5.59598e-05
6.44249e-05
-5.84938e-05
7.65253e-05
-6.16475e-05
8.93058e-05
-6.55194e-05
0.000102944
-7.02389e-05
0.000117592
-7.58468e-05
0.000133547
-8.32083e-05
0.000150719
-9.0621e-05
0.000170322
-0.00010042
0.000193694
-0.000116692
0.000112191
-0.000107572
4.58081e-06
-1.47594e-05
2.22853e-07
-8.81649e-07
-1.43705e-08
8.5431e-08
-3.32043e-09
1.50337e-08
9.56404e-10
1.66398e-09
2.50365e-09
3.7883e-10
1.91001e-08
5.74071e-09
6.68041e-08
1.56758e-07
9.33736e-06
-5.64954e-05
1.95766e-05
-6.54685e-05
2.95924e-05
-6.37172e-05
3.97796e-05
-6.43186e-05
5.02768e-05
-6.6457e-05
6.11552e-05
-6.93722e-05
7.25019e-05
-7.29942e-05
8.44166e-05
-7.74341e-05
9.70154e-05
-8.28378e-05
0.000110439
-8.92708e-05
0.000124869
-9.7638e-05
0.000140063
-0.000105815
0.000157694
-0.000118051
0.000167644
-0.000126644
2.18331e-05
-6.6658e-05
1.20084e-06
-3.93053e-06
-1.07964e-08
1.11661e-08
-5.43391e-09
3.01333e-08
-8.01387e-11
2.86681e-09
1.99415e-10
3.03225e-10
4.50033e-10
9.0982e-11
4.67568e-09
1.0973e-09
1.47002e-08
5.4292e-08
8.97274e-06
-6.54681e-05
1.85156e-05
-7.50114e-05
2.78948e-05
-7.30964e-05
3.74601e-05
-7.38839e-05
4.7285e-05
-7.62819e-05
5.74131e-05
-7.95003e-05
6.79077e-05
-8.34887e-05
7.884e-05
-8.83664e-05
9.02755e-05
-9.42733e-05
0.000102311
-0.000101306
0.000115
-0.000110327
0.000128028
-0.000118843
0.00014341
-0.000133433
9.95304e-05
-0.000138005
3.22804e-06
-2.75332e-05
1.10569e-07
-1.39666e-06
-1.6214e-08
6.55581e-08
-2.12516e-09
7.63249e-09
-1.51095e-10
3.69115e-10
3.17177e-11
3.07826e-11
1.00266e-10
2.31799e-11
9.61569e-10
1.66296e-10
2.44541e-09
1.2795e-08
8.53221e-06
-7.40003e-05
1.73245e-05
-8.38037e-05
2.6017e-05
-8.17889e-05
3.4899e-05
-8.27658e-05
4.39848e-05
-8.53677e-05
5.32938e-05
-8.88094e-05
6.28664e-05
-9.30614e-05
7.27427e-05
-9.82427e-05
8.2945e-05
-0.000104476
9.35162e-05
-0.000111877
0.000104377
-0.000121188
0.000115251
-0.000129717
0.000127813
-0.000145995
4.31005e-05
-0.000119135
1.3002e-06
-7.97619e-06
-2.53813e-08
-2.56347e-07
-5.93917e-09
3.07455e-08
-5.01297e-10
1.17959e-09
-6.55995e-11
1.93519e-10
3.53639e-12
5.51285e-11
2.16126e-11
8.1574e-12
1.5918e-10
1.83143e-11
3.03251e-10
2.23125e-09
8.02494e-06
-8.20253e-05
1.60305e-05
-9.18092e-05
2.40032e-05
-8.97616e-05
3.2158e-05
-9.09206e-05
4.04594e-05
-9.36691e-05
4.89078e-05
-9.72578e-05
5.75232e-05
-0.000101677
6.63179e-05
-0.000107037
7.52796e-05
-0.000113437
8.44075e-05
-0.000121005
9.3522e-05
-0.000130302
0.000102474
-0.000138669
0.000109675
-0.000153196
1.00272e-05
-8.47039e-05
3.19669e-07
-3.02353e-06
-2.07487e-08
4.17715e-08
-1.2233e-09
8.97928e-09
-7.01081e-11
2.75887e-10
-7.78057e-12
2.91818e-11
-8.81521e-13
2.72183e-11
4.87698e-12
2.49715e-12
2.01958e-11
1.54296e-12
2.80435e-11
2.84903e-10
7.46024e-06
-8.94855e-05
1.46605e-05
-9.90094e-05
2.18946e-05
-9.69958e-05
2.92943e-05
-9.83203e-05
3.67856e-05
-0.00010116
4.43554e-05
-0.000104828
5.20067e-05
-0.000109328
5.97299e-05
-0.000114761
6.74894e-05
-0.000121197
7.52556e-05
-0.000128771
8.28043e-05
-0.000137851
9.0183e-05
-0.000146048
7.63402e-05
-0.000154934
1.72621e-06
-5.35593e-05
3.49883e-08
-1.53346e-06
-6.9936e-09
7.57279e-08
-2.00502e-10
1.92204e-09
-1.32758e-11
6.41637e-11
-4.84247e-13
-6.88573e-12
-1.24803e-13
-2.55589e-13
8.13938e-13
1.20304e-12
1.94441e-12
2.51916e-13
2.42181e-12
2.59681e-11
6.84928e-06
-9.63348e-05
1.32412e-05
-0.000105401
1.97298e-05
-0.000103484
2.63608e-05
-0.000104951
3.30333e-05
-0.000107833
3.97257e-05
-0.00011152
4.64277e-05
-0.00011603
5.31144e-05
-0.000121447
5.97362e-05
-0.000127819
6.62472e-05
-0.000135282
7.24082e-05
-0.000144012
7.84056e-05
-0.000152045
4.99006e-05
-0.00015262
9.26531e-07
-3.11007e-05
-4.20041e-08
-6.57386e-07
-1.67825e-09
3.4018e-08
-3.54549e-11
2.33013e-10
-2.17375e-12
9.19634e-12
-8.63315e-14
-4.58032e-13
2.66149e-13
-7.07749e-13
1.13305e-13
4.65335e-13
1.81275e-13
1.1682e-13
2.55425e-13
1.91321e-12
6.20515e-06
-0.00010254
1.17972e-05
-0.000110993
1.75427e-05
-0.00010923
2.34035e-05
-0.000110812
2.92625e-05
-0.000113692
3.50926e-05
-0.00011735
4.08746e-05
-0.000121812
4.65733e-05
-0.000127146
5.21337e-05
-0.000133379
5.75024e-05
-0.000140651
6.24527e-05
-0.000148962
6.72989e-05
-0.000156892
3.14102e-05
-0.000142465
5.8247e-07
-1.61475e-05
-2.52264e-08
-7.30505e-08
-2.68922e-10
8.83196e-09
-3.59391e-12
3.28583e-11
-5.8649e-13
1.4586e-12
-5.99962e-14
5.71112e-13
7.82449e-14
9.1508e-14
8.75009e-14
1.69101e-13
4.44038e-14
8.41533e-14
-1.36042e-14
1.4628e-13
5.54069e-06
-0.000108081
1.03514e-05
-0.000115804
1.53635e-05
-0.000114242
2.04621e-05
-0.000115911
2.55233e-05
-0.000118753
3.05165e-05
-0.000122343
3.54162e-05
-0.000126712
4.01812e-05
-0.000131911
4.47562e-05
-0.000137954
4.9085e-05
-0.00014498
5.29714e-05
-0.000152849
5.67932e-05
-0.000160713
1.74198e-05
-0.000128155
1.52398e-07
-6.92146e-06
-7.58214e-09
8.42464e-08
-4.09388e-11
1.26005e-09
-3.34975e-13
3.71e-12
-2.79008e-15
1.58346e-13
9.71601e-15
3.85842e-13
3.30998e-14
1.36071e-13
3.23171e-14
8.32009e-14
1.83681e-14
4.38061e-14
1.20002e-14
1.70221e-14
4.86784e-06
-0.000112948
8.92212e-06
-0.000119858
1.32161e-05
-0.000118536
1.75684e-05
-0.000120263
2.18548e-05
-0.000123039
2.60432e-05
-0.000126532
3.01031e-05
-0.000130772
3.39908e-05
-0.000135799
3.76526e-05
-0.000141616
4.10298e-05
-0.000148357
4.39758e-05
-0.000155795
4.68155e-05
-0.000163553
7.64635e-06
-0.000108042
-5.71517e-08
-2.02342e-06
-1.20667e-09
2.80596e-08
-1.78084e-12
5.55627e-11
-4.12788e-14
1.99538e-12
6.41831e-14
3.44863e-13
2.06209e-14
1.79357e-13
1.51779e-14
7.68897e-14
1.10625e-14
3.51204e-14
5.33111e-15
1.48797e-14
5.70726e-15
2.60012e-15
4.19331e-06
-0.000117142
7.52143e-06
-0.000123186
1.11172e-05
-0.000122132
1.47446e-05
-0.00012389
1.82835e-05
-0.000126578
2.17028e-05
-0.000129951
2.49689e-05
-0.000134038
2.8038e-05
-0.000138868
3.08601e-05
-0.000144438
3.33681e-05
-0.000150865
3.54711e-05
-0.000157897
3.72377e-05
-0.000165318
1.6225e-06
-7.95e-05
-1.95277e-08
-7.38838e-07
-3.68705e-11
8.61101e-09
-3.73119e-13
2.11938e-11
4.97527e-14
3.43785e-12
5.77378e-15
2.95618e-13
9.40936e-15
7.42437e-14
6.10373e-15
3.18318e-14
3.13383e-15
1.18095e-14
1.23834e-15
3.82197e-15
1.05002e-15
4.72573e-16
3.5338e-06
-0.000120675
6.17327e-06
-0.000125825
9.09702e-06
-0.000125055
1.20289e-05
-0.000126822
1.48584e-05
-0.000129407
1.75539e-05
-0.000132646
2.00788e-05
-0.000136562
2.23873e-05
-0.000141175
2.44335e-05
-0.000146482
2.61054e-05
-0.000152534
2.733e-05
-0.000159117
2.74943e-05
-0.000165472
4.21037e-07
-4.99287e-05
-4.99105e-09
-3.19101e-07
-4.19682e-11
3.69972e-09
-7.67054e-13
4.6725e-11
-1.53386e-13
3.44805e-12
2.05568e-16
1.03729e-13
4.20705e-15
3.45595e-14
1.9289e-15
1.14958e-14
7.26594e-16
3.41071e-15
2.28529e-16
8.80562e-16
1.98368e-16
7.35676e-17
2.93055e-06
-0.000123602
4.92007e-06
-0.00012781
7.22021e-06
-0.000127351
9.50773e-06
-0.000129104
1.16894e-05
-0.000131583
1.37265e-05
-0.000134675
1.55748e-05
-0.0001384
1.71705e-05
-0.000142758
1.84573e-05
-0.000147754
1.91796e-05
-0.000153235
1.91451e-05
-0.000159054
1.64246e-05
-0.000162679
2.93341e-07
-3.41455e-05
-3.34829e-09
-2.29767e-08
-3.38521e-12
3.15042e-10
3.95308e-13
4.91815e-11
-9.31394e-14
2.94975e-12
1.21322e-15
3.45725e-14
2.55835e-15
1.57587e-14
4.88416e-16
3.85295e-15
1.41189e-16
9.24279e-16
3.57235e-17
1.92244e-16
3.52816e-17
9.9723e-18
2.37393e-06
-0.000125939
3.75159e-06
-0.000129146
5.49953e-06
-0.000129055
7.20859e-06
-0.000130765
8.80253e-06
-0.000133122
1.0235e-05
-0.000136043
1.14453e-05
-0.000139534
1.23453e-05
-0.000143564
1.28515e-05
-0.000148144
1.26166e-05
-0.000152848
1.11204e-05
-0.000157361
7.72623e-06
-0.000158801
-2.23543e-08
-3.4053e-05
-8.15823e-11
-4.529e-08
2.82507e-12
2.27238e-10
2.26058e-13
4.18985e-11
1.53024e-14
4.79307e-12
1.20807e-15
9.54223e-14
7.21496e-16
6.92029e-15
1.0871e-16
1.08917e-15
2.48987e-17
2.58278e-16
4.70601e-18
4.21274e-17
6.07979e-18
1.16319e-18
1.74856e-06
-0.000127361
2.53762e-06
-0.000129578
3.72759e-06
-0.000129873
4.84054e-06
-0.000131472
5.80844e-06
-0.000133634
6.58817e-06
-0.000136301
7.10594e-06
-0.000139443
7.29525e-06
-0.000143036
7.06805e-06
-0.000147065
6.6799e-06
-0.000150175
6.11481e-06
-0.000148958
7.81791e-06
-0.00011922
-1.90587e-07
-3.61084e-05
1.41938e-08
-1.44028e-06
1.78376e-09
1.2607e-08
5.27199e-11
1.76738e-09
6.80718e-13
5.19186e-11
4.23333e-16
7.48004e-13
3.55822e-17
8.06789e-15
2.14618e-17
4.75173e-16
3.9672e-18
8.74017e-17
4.75536e-19
1.03161e-17
1.04665e-18
1.05492e-19
8.03628e-07
-7.83604e-05
9.39067e-07
-7.74789e-05
1.36251e-06
-7.60523e-05
1.66033e-06
-7.38694e-05
1.7903e-06
-7.09106e-05
1.73538e-06
-6.71041e-05
1.50413e-06
-6.24725e-05
1.18436e-06
-5.72072e-05
7.68747e-07
-5.14058e-05
1.54185e-06
-4.1561e-05
3.97629e-06
-2.68815e-05
4.35066e-06
-7.62494e-07
1.78245e-06
-1.85172e-05
8.95342e-08
-4.94142e-06
2.3917e-08
3.78084e-08
8.18045e-10
2.27117e-08
1.22392e-11
8.10605e-10
1.43689e-13
1.2656e-11
1.48829e-16
1.51208e-13
8.09194e-19
6.75574e-16
1.09428e-19
3.42336e-17
7.28545e-21
2.9461e-18
1.84592e-19
3.29469e-21
-1.23377e-07
-9.73167e-25
-3.34495e-07
-3.21215e-24
-4.65399e-07
-2.39636e-22
-5.8085e-07
-1.27232e-20
-6.82918e-07
-4.25082e-19
-7.37942e-07
-1.08987e-17
-6.70897e-07
-2.72992e-16
-5.12526e-07
-5.392e-15
-1.73679e-07
-1.08258e-13
2.00784e-07
-2.45935e-12
7.81895e-07
-4.70502e-11
1.98617e-08
-5.07793e-10
1.14784e-06
-4.44782e-09
2.02459e-06
-1.00039e-06
1.35031e-09
-1.50979e-08
3.62973e-10
2.28557e-08
1.6704e-12
1.16479e-09
-7.4572e-14
1.45115e-11
-5.94371e-16
7.72342e-14
-2.08491e-18
8.10153e-17
-2.67886e-19
1.32542e-17
-1.33478e-20
8.22818e-19
3.27626e-20
-9.72611e-22
-1.80804e-26
-2.29536e-24
-1.36499e-24
-3.20535e-24
-9.998e-23
-1.42733e-22
-4.2849e-21
-8.57126e-21
-1.31861e-19
-2.99176e-19
-3.60735e-18
-7.47735e-18
-6.61733e-17
-2.11806e-16
-9.86256e-16
-4.5063e-15
-2.60265e-15
-1.07294e-13
3.74889e-14
-2.51268e-12
1.64721e-12
-4.90086e-11
2.91746e-11
-5.42023e-10
3.13681e-10
-4.7795e-09
1.47874e-07
-2.6573e-07
2.57333e-08
-5.74433e-09
-2.46362e-10
2.26627e-08
-1.03431e-11
3.17886e-10
-6.74269e-14
4.35615e-12
-8.57703e-17
4.63492e-15
-2.89948e-18
1.15597e-17
-1.70592e-19
1.03653e-17
-5.16552e-21
2.0157e-19
5.03894e-21
-3.02159e-22
-3.93449e-26
-1.54098e-24
-1.95703e-25
-3.38137e-24
-2.15371e-23
-2.39622e-22
-1.63313e-21
-1.92476e-20
-5.13906e-20
-6.96712e-19
-1.92182e-18
-1.40155e-17
-3.80851e-17
-3.88254e-16
3.66357e-16
-6.39562e-15
5.74053e-14
-1.903e-13
8.13862e-13
-4.11531e-12
5.99567e-12
-7.78651e-11
6.75647e-12
-9.38069e-10
7.15179e-10
-8.90786e-09
-1.6908e-07
-1.01095e-07
-1.94863e-08
7.49043e-09
-2.7162e-10
3.55689e-09
-3.50529e-12
4.94887e-11
-3.87014e-15
5.35199e-13
-1.23696e-17
7.74487e-16
-3.07273e-18
7.44825e-18
-6.22023e-20
7.5001e-18
-1.19565e-21
3.38719e-20
5.98951e-22
-5.71365e-23
-5.46835e-26
-1.33997e-24
-4.43427e-25
-2.73804e-24
-9.68887e-23
-2.61679e-22
-9.72403e-21
-3.13798e-20
-2.20282e-19
-1.05055e-18
-1.27074e-17
-1.46971e-17
-1.03871e-16
-4.83958e-16
9.53983e-15
-1.56629e-14
2.69316e-13
-4.66194e-13
5.60351e-12
-9.85621e-12
7.22358e-11
-1.52159e-10
6.43428e-10
-2.1463e-09
-9.81803e-10
-1.72045e-08
-2.0509e-07
-2.71456e-08
-3.42743e-09
2.19701e-09
-4.63168e-11
1.91024e-10
-5.01931e-13
3.46745e-12
-7.34889e-16
3.43401e-14
-2.47018e-18
4.02859e-17
-1.97297e-18
1.82069e-18
-1.26472e-20
2.14614e-18
-1.91633e-22
3.28504e-21
5.6294e-23
-8.41474e-24
-2.73046e-26
-5.19114e-26
-4.33444e-25
-4.67465e-25
-1.71427e-22
-9.85294e-23
-3.25347e-20
-1.02243e-20
-3.25754e-19
-6.23631e-19
-6.72301e-18
-6.0136e-18
-4.66445e-16
-8.16605e-18
-1.58286e-14
-7.26726e-17
-4.78535e-13
-3.23085e-15
-1.02665e-11
-6.1545e-14
-1.61132e-10
-1.20396e-12
-7.00788e-09
-1.55533e-11
-1.92462e-08
-1.13993e-10
-1.17545e-08
-6.75929e-10
-1.77593e-10
7.79014e-10
-3.06616e-12
1.80991e-11
-3.1003e-14
4.24856e-13
-3.84209e-17
3.44975e-15
-3.82845e-19
2.39883e-18
-4.17842e-19
1.13657e-19
-1.5308e-21
1.353e-19
-2.34284e-23
2.1956e-22
4.5271e-24
-1.03504e-24
-3.49826e-27
7.22098e-26
-5.97979e-24
5.50883e-24
-3.02519e-22
1.9801e-22
-1.01404e-20
4.45278e-21
-5.48682e-19
6.80286e-20
-7.14859e-19
7.21895e-19
-8.51917e-19
5.21838e-18
-9.71717e-17
2.38227e-17
-3.37255e-15
4.91199e-17
-6.43895e-14
-4.65335e-16
-1.25548e-12
-1.20368e-14
-1.66364e-11
-1.61366e-13
-1.30103e-10
-1.27861e-12
-7.93594e-10
-1.14631e-11
-1.81564e-11
1.23357e-11
-4.0095e-13
4.63856e-13
-3.38811e-15
1.79867e-14
-1.68592e-18
8.30298e-17
-6.66041e-20
3.3765e-19
-3.81935e-20
1.21323e-20
-1.34915e-22
4.08156e-21
-2.33029e-24
1.26676e-23
3.18821e-25
-1.08937e-25
2.68837e-25
7.17456e-26
1.95979e-23
5.58823e-24
6.67189e-22
2.08014e-22
1.38385e-20
4.91327e-21
1.8824e-19
8.08141e-20
1.69022e-18
9.57018e-19
9.41869e-18
8.16629e-18
2.3607e-17
4.88654e-17
-5.86951e-17
1.92027e-16
-9.53004e-16
4.29562e-16
-1.33177e-14
3.15783e-16
-1.72812e-13
-2.28563e-15
-1.44016e-12
-1.21757e-14
-1.28488e-11
-4.84037e-14
-4.87602e-13
2.38966e-14
-1.72239e-14
3.00677e-15
-7.24147e-17
8.51884e-17
1.53428e-17
1.15918e-17
-9.1195e-21
-9.56098e-18
-2.63145e-21
1.18578e-21
-9.46569e-24
1.49271e-22
-1.92237e-25
6.05473e-25
1.93464e-26
-9.89903e-27
2.97354e-25
1.50759e-28
2.2422e-23
5.38693e-27
8.0543e-22
6.70401e-26
1.80487e-20
2.21353e-25
2.75322e-19
-2.18132e-24
2.93328e-18
-8.24213e-23
2.15749e-17
-2.50332e-21
1.04053e-16
-6.20689e-20
2.87817e-16
-1.25376e-18
2.66244e-16
-2.07716e-17
-4.4438e-16
-2.80887e-16
-5.19798e-16
-2.4911e-15
-4.17834e-15
-9.48914e-15
-4.35684e-14
-9.31037e-15
-4.76745e-15
-1.4646e-15
-9.76475e-17
1.27781e-17
6.01894e-18
7.54635e-19
1.04294e-17
-2.31242e-18
-7.32492e-22
-5.36948e-18
-1.31222e-22
3.66633e-23
-4.94139e-25
5.52862e-24
-1.31678e-26
2.19191e-26
9.89691e-28
-7.82741e-28
3.0545e-28
5.54179e-33
7.67653e-27
-7.13954e-32
3.87243e-26
-7.24217e-30
-5.20995e-25
-4.83473e-28
-2.65766e-24
-4.46548e-26
-8.33618e-23
-1.71719e-24
-2.53333e-21
-5.33473e-23
-6.57083e-20
-1.2042e-21
-1.40378e-18
-2.23637e-20
-2.55398e-17
-3.23302e-19
-7.27338e-16
-5.00198e-18
-1.14364e-14
-7.45969e-17
-3.26998e-14
-3.36153e-16
-2.76827e-14
-1.79498e-16
-3.12783e-16
-1.07627e-16
-4.59434e-18
6.82062e-19
1.57549e-18
2.57521e-19
2.94753e-18
-4.79912e-19
-3.37267e-23
-1.25909e-18
-5.31055e-24
1.02572e-24
-2.03276e-26
1.92161e-25
-7.29393e-28
7.20452e-28
4.2994e-29
-5.42978e-29
-4.23313e-33
-1.74516e-36
-7.49356e-32
-6.92983e-34
-7.24455e-30
-7.25609e-32
-4.857e-28
-5.01661e-30
-4.5085e-26
-2.51523e-28
-1.75978e-24
-1.00464e-26
-5.50186e-23
-3.25555e-25
-1.25765e-21
-7.76197e-24
-2.3606e-20
-1.53364e-22
-3.47259e-19
-2.31283e-21
-1.04514e-17
-4.01421e-20
-1.78651e-16
-6.9063e-19
-6.25576e-16
-3.72511e-18
-6.08194e-16
-4.9568e-18
-1.4777e-17
-2.0904e-18
-3.88285e-18
4.99227e-21
6.4282e-19
2.38586e-19
4.60097e-19
-1.5349e-19
-1.58806e-24
-1.63283e-19
-1.86178e-25
7.18628e-26
-8.29292e-28
5.54867e-27
-3.62871e-29
2.68001e-29
1.81819e-30
-3.3213e-30
-1.74429e-36
-8.77562e-40
-6.9472e-34
-1.78182e-37
-7.32545e-32
-1.92874e-35
-5.08974e-30
-1.39689e-33
-2.56605e-28
-7.35546e-32
-1.03026e-26
-3.08737e-30
-3.3563e-25
-1.06119e-28
-8.09049e-24
-2.71921e-27
-1.61257e-22
-5.81275e-26
-2.47023e-21
-9.30287e-25
-8.55915e-20
-1.52386e-23
-1.78929e-18
-2.83516e-22
-6.62213e-18
-4.39543e-21
-6.67181e-18
-2.47287e-20
-6.86302e-19
-3.25472e-20
-7.48983e-19
-8.57654e-21
1.11186e-19
2.1962e-20
4.41124e-20
-2.01963e-20
-1.07941e-25
-1.29607e-20
-5.47398e-27
5.43384e-27
-3.55109e-29
9.56715e-29
-1.76629e-30
1.148e-30
8.09411e-32
-1.80767e-31
-1.02263e-39
1.45066e-40
-1.82344e-37
3.13967e-39
-1.94738e-35
-2.50889e-38
-1.41614e-33
-1.90656e-36
-7.4953e-32
-1.05243e-34
-3.11966e-30
-4.71852e-33
-1.07695e-28
-1.78917e-31
-2.77853e-27
-5.09842e-30
-5.99075e-26
-1.22158e-28
-9.72816e-25
-2.20421e-27
-1.87122e-23
-4.16918e-26
-6.38529e-22
-8.3838e-25
-1.55711e-20
-1.59239e-23
-7.78917e-20
-1.34159e-22
-8.38098e-20
-2.52395e-22
-1.65669e-20
-1.19973e-22
8.14052e-21
1.26155e-22
2.733e-21
-1.06117e-21
-5.59172e-27
-6.56787e-22
-1.34133e-28
1.55258e-28
-1.53013e-30
1.76045e-30
-8.69513e-32
4.63744e-32
3.73554e-33
-8.86088e-33
1.92444e-40
1.02687e-42
-1.63408e-39
4.48242e-41
-2.7246e-38
6.52685e-40
-1.92029e-36
2.12178e-39
-9.30984e-35
-3.75845e-38
-4.26985e-33
-1.84663e-36
-1.63818e-31
-7.41678e-35
-4.81508e-30
-2.42632e-33
-1.19137e-28
-6.77562e-32
-2.37315e-27
-1.59134e-30
-4.81777e-26
-3.39027e-29
-1.68981e-24
-7.5741e-28
-6.09152e-23
-1.69913e-26
-4.56189e-22
-1.98999e-25
-5.53518e-22
-5.02055e-25
1.26151e-23
-3.09222e-25
2.79553e-22
1.82919e-26
1.11679e-22
-2.32104e-23
-2.21546e-28
-2.14698e-23
-3.75972e-30
4.36853e-30
-7.2515e-32
9.59134e-32
-4.33261e-33
1.96233e-33
1.66017e-34
-4.16283e-34
2.71511e-42
-9.22598e-51
8.03681e-41
-2.54857e-48
4.00362e-40
-3.47022e-46
-8.12126e-39
-3.12559e-44
-4.57031e-38
-2.71124e-42
-1.89244e-36
-1.35324e-40
-7.60651e-35
-5.95817e-39
-2.50258e-33
-2.15246e-37
-7.02653e-32
-6.67147e-36
-1.66182e-30
-1.75263e-34
-3.70822e-29
-4.16042e-33
-1.35061e-27
-1.00248e-31
-6.57556e-26
-2.11677e-30
-7.21694e-25
-4.6808e-29
-9.61809e-25
-6.61999e-28
6.02758e-25
-1.70387e-27
4.45861e-24
-2.43433e-28
3.00624e-24
-1.70616e-25
-7.78022e-30
-4.45042e-25
-1.25948e-31
1.1999e-31
-3.30143e-33
1.88065e-33
-1.94048e-34
7.87462e-35
6.11366e-36
-1.86336e-35
-9.21992e-51
-6.06611e-54
-2.55594e-48
-1.8471e-51
-3.49301e-46
-2.77539e-49
-3.15775e-44
-2.76405e-47
-2.74385e-42
-1.38348e-45
-1.38134e-40
-7.61983e-44
-6.09951e-39
-3.71613e-42
-2.21468e-37
-1.49619e-40
-6.89757e-36
-5.19054e-39
-1.82324e-34
-1.53689e-37
-4.34931e-33
-4.13627e-36
-1.2147e-31
-1.1144e-34
-3.97393e-30
-2.75728e-33
-2.45671e-28
-7.0731e-32
-3.99453e-27
-1.36013e-30
-3.88142e-27
-5.20329e-30
2.87562e-26
-3.04446e-30
5.20682e-26
3.17161e-31
-2.32449e-31
-5.53462e-27
-4.37666e-33
2.317e-33
-1.38014e-34
5.52749e-35
-7.2525e-36
2.73883e-36
1.86205e-37
-7.5506e-37
-6.06615e-54
-5.39509e-59
-1.85318e-51
-1.831e-56
-2.79395e-49
-3.06035e-54
-2.79202e-47
-3.3945e-52
-1.41148e-45
-1.90763e-50
-7.76112e-44
-1.16742e-48
-3.78974e-42
-6.36521e-47
-1.53213e-40
-2.88492e-45
-5.33417e-39
-1.13035e-43
-1.58762e-37
-3.80825e-42
-4.29466e-36
-1.17166e-40
-1.26782e-34
-3.54468e-39
-4.50091e-33
-1.00717e-37
-3.2518e-31
-2.65078e-36
-8.19016e-30
-9.8742e-35
-1.1297e-29
-8.05942e-34
5.28496e-29
1.02179e-33
5.47254e-28
1.23319e-32
-4.48724e-33
-3.6054e-29
-1.42805e-34
2.22591e-35
-4.95829e-36
1.41709e-36
-2.33261e-37
7.43974e-38
5.0501e-39
-2.74718e-38
-5.39581e-59
-1.45464e-62
-1.83664e-56
-5.5809e-60
-3.07907e-54
-1.05192e-57
-3.42552e-52
-1.3167e-55
-1.94219e-50
-8.36915e-54
-1.16933e-48
-5.67873e-52
-6.39955e-47
-3.53326e-50
-2.90505e-45
-1.82218e-48
-1.14364e-43
-8.19613e-47
-3.87867e-42
-3.18941e-45
-1.21436e-40
-1.15862e-43
-3.72351e-39
-4.00736e-42
-1.25416e-37
-1.32007e-40
-1.05337e-35
-3.99793e-39
-1.2266e-33
-1.46147e-37
5.36854e-33
-3.49794e-36
2.19447e-31
-3.34636e-36
3.05389e-30
3.64857e-35
-5.29435e-35
-7.86584e-32
-3.60722e-36
1.33615e-37
-1.27986e-37
2.38884e-38
-6.4597e-39
1.40028e-39
1.22928e-40
-9.02636e-40
-1.45469e-62
-8.90385e-67
-5.58452e-60
-4.01954e-64
-1.05346e-57
-8.88975e-62
-1.3199e-55
-1.30483e-59
-7.84398e-54
-8.31822e-58
-5.49394e-52
-6.90878e-56
-3.43655e-50
-4.92391e-54
-1.79471e-48
-2.9815e-52
-8.17589e-47
-1.58086e-50
-3.26466e-45
-7.42933e-49
-1.19205e-43
-3.18392e-47
-4.13189e-42
-1.28395e-45
-1.48865e-40
-4.82102e-44
-7.00059e-39
-1.7651e-42
-1.50449e-36
-6.3529e-41
-1.33471e-35
-2.48525e-39
3.33142e-34
-1.27635e-38
6.00524e-33
-1.67731e-38
-4.39871e-37
4.89146e-41
-5.69183e-38
6.48798e-40
-2.61848e-39
2.45662e-40
-1.60301e-40
2.3408e-41
2.83389e-42
-2.69092e-41
-7.52657e-67
-6.72723e-73
-3.41976e-64
-3.45439e-70
-7.64102e-62
-8.69492e-68
-1.13256e-59
-1.452e-65
-8.43151e-58
-1.60334e-63
-6.99313e-56
-1.55007e-61
-4.99386e-54
-1.28902e-59
-3.03145e-52
-9.12933e-58
-1.61119e-50
-5.67399e-56
-7.59049e-49
-3.13396e-54
-3.25986e-47
-1.58259e-52
-1.31657e-45
-7.53692e-51
-4.92845e-44
-3.34833e-49
-2.26472e-42
-1.4163e-47
-2.12537e-40
-5.71119e-46
-1.68375e-38
-2.19606e-44
-9.97553e-38
-9.76596e-43
2.74445e-39
-6.20615e-42
-2.72455e-39
-5.6527e-42
-6.68803e-40
2.19213e-42
-4.58743e-41
2.26722e-42
-3.66304e-42
3.6075e-43
6.13771e-44
-7.27628e-43
-6.72846e-73
-7.05312e-77
-3.46183e-70
-4.30747e-74
-8.73157e-68
-1.28945e-71
-1.46113e-65
-2.56043e-69
-1.61857e-63
-3.36727e-67
-1.56699e-61
-3.87368e-65
-1.30542e-59
-3.83925e-63
-9.26587e-58
-3.24713e-61
-5.77132e-56
-2.41427e-59
-3.19498e-54
-1.59848e-57
-1.61792e-52
-9.72346e-56
-7.72048e-51
-5.58299e-54
-3.43972e-49
-2.9964e-52
-1.51466e-47
-1.51535e-50
-7.60287e-46
-7.37476e-49
-7.29518e-44
-3.54841e-47
-9.03553e-42
-2.06907e-45
-8.05212e-41
-3.96521e-44
-1.12909e-41
-3.04527e-44
-6.03719e-42
3.78026e-45
-6.92264e-43
1.91421e-44
-7.349e-44
4.98921e-45
1.18914e-45
-1.78047e-44
-7.05325e-77
-7.39068e-82
-4.31461e-74
-5.52262e-79
-1.29379e-71
-2.02514e-76
-2.57344e-69
-4.92709e-74
-3.39314e-67
-7.95167e-72
-3.90781e-65
-1.12171e-69
-3.87648e-63
-1.36461e-67
-3.28422e-61
-1.42059e-65
-2.44543e-59
-1.30169e-63
-1.62178e-57
-1.06489e-61
-9.88737e-56
-8.03204e-60
-5.68348e-54
-5.717e-58
-3.05456e-52
-3.81179e-56
-1.54683e-50
-2.40016e-54
-8.25886e-49
-1.43417e-52