/*--------------------------------*- C++ -*----------------------------------*\
| =========                 |                                                 |
| \\      /  F ield         | OpenFOAM: The Open Source CFD Toolbox           |
|  \\    /   O peration     | Version:  2206                                  |
|   \\  /    A nd           | Website:  www.openfoam.com                      |
|    \\/     M anipulation  |                                                 |
\*---------------------------------------------------------------------------*/
FoamFile
{
    version     2.0;
    format      ascii;
    arch        "LSB;label=32;scalar=64";
    class       volScalarField;
    location    "0.1";
    object      p;
}
// * * * * * * * * * * * * * * * * * * * * * * * * * * * * * * * * * * * * * //

dimensions      [1 -1 -2 0 0 0 0];

internalField   nonuniform List<scalar> 
2268
(
1955.64
1951.1
1935.62
1910.97
1877.98
1835.97
1784.09
1721.44
1646.95
1559.6
1457.38
1338.73
1203.24
1048.09
867.025
660.137
447.982
267.131
149.942
104.728
79.6881
78.3637
86.9934
1896.93
1892.38
1876.85
1852.2
1819.21
1777.17
1725.23
1662.49
1587.86
1500.31
1397.77
1278.56
1142.22
985.978
803.717
595.216
380.915
198.073
77.4542
35.8987
46.7618
68.7979
85.6075
1838.38
1833.8
1818.2
1793.55
1760.55
1718.43
1666.4
1603.49
1528.59
1440.65
1337.45
1217.16
1079.22
920.814
735.911
523.195
302.231
119.539
28.9921
11.8059
20.9832
50.0029
77.4929
1780.01
1775.38
1759.68
1735.03
1702
1659.8
1607.61
1544.46
1469.19
1380.67
1276.5
1154.66
1014.53
852.993
662.792
439.645
207.801
51.7073
8.64512
6.0151
8.76761
25.5315
58.927
1721.86
1717.13
1701.33
1676.69
1643.62
1601.31
1548.95
1485.5
1409.77
1320.54
1215.14
1091.34
948.448
782.734
583.573
342.546
110.282
14.4644
3.44188
3.73747
5.2129
9.74886
34.0443
1663.94
1659.11
1643.21
1618.57
1585.46
1543.04
1490.49
1426.72
1350.48
1260.43
1153.65
1027.66
881.655
710.694
497.255
233.326
39.4745
4.98505
2.36816
2.80885
3.59874
4.80722
13.6967
1606.26
1601.27
1585.29
1560.65
1527.51
1484.98
1432.23
1368.1
1291.32
1200.38
1092.03
963.728
814.869
637.852
404.338
127.798
12.9447
2.72208
1.96475
2.29262
2.70358
2.67107
4.65244
1548.83
1543.61
1527.55
1502.93
1469.75
1427.1
1374.14
1309.62
1232.27
1140.34
1030.24
899.501
748.18
563.478
307.115
52.1049
4.82841
1.69177
1.71228
1.9533
2.1252
1.68877
1.56215
0.761185
0.763475
0.763068
0.760066
0.755334
0.749539
0.743153
0.736496
0.72982
0.723335
0.717193
0.711515
0.706397
0.701911
0.698113
0.695042
0.692728
0.691186
0.690419
0.701572
0.70474
0.70454
0.701514
0.696706
0.690819
0.684334
0.677608
0.670886
0.664364
0.658193
0.652493
0.647356
0.642856
0.639047
0.635969
0.63365
0.632105
0.631339
0.641057
0.646187
0.646387
0.643298
0.638321
0.632257
0.625613
0.61874
0.611898
0.605282
0.599037
0.59328
0.588101
0.583569
0.579737
0.576643
0.574311
0.572759
0.57199
0.579352
0.587882
0.588667
0.585445
0.580183
0.573838
0.566938
0.559845
0.552825
0.546068
0.539714
0.533874
0.528631
0.524052
0.520185
0.517066
0.514717
0.513154
0.51238
0.516351
0.529957
0.531451
0.527967
0.522275
0.515536
0.508289
0.500904
0.49365
0.48671
0.480215
0.474266
0.468942
0.464302
0.46039
0.457238
0.454867
0.45329
0.452509
0.452304
0.472185
0.47487
0.470836
0.464563
0.457318
0.449635
0.44189
0.434353
0.427192
0.420527
0.414448
0.409027
0.404314
0.400348
0.397157
0.394759
0.393165
0.392376
0.381839
0.413319
0.419095
0.414019
0.406969
0.39914
0.390938
0.382771
0.374907
0.367493
0.360634
0.354409
0.348876
0.344081
0.340054
0.336819
0.33439
0.332777
0.331979
0.296821
0.353141
0.363898
0.357553
0.349398
0.340912
0.33214
0.323504
0.31528
0.307589
0.300519
0.294134
0.288481
0.283596
0.279503
0.276219
0.273758
0.272124
0.271315
1459.67
1453.95
1437.89
1413.3
1380.08
1337.29
1284.02
1218.97
1140.74
1047.33
934.582
800.486
645.213
442.402
164.013
13.3901
1.85074
1.03294
1.34203
1.493
1.46615
0.988411
-0.0457812
1340.33
1334.14
1318.06
1293.64
1260.53
1217.77
1164.4
1099
1020.11
925.339
810.023
673.721
514.274
286.866
38.4389
2.82505
0.634376
0.697475
0.94509
1.03052
1.00129
0.819492
0.624459
1223.38
1216.73
1200.75
1176.66
1143.89
1101.45
1048.41
983.237
904.51
809.455
693.335
557.965
393.671
154.242
7.65025
0.836411
0.235654
0.459608
0.622626
0.707333
0.7442
0.739885
0.945121
1109.32
1102.3
1086.58
1063.03
1030.89
989.223
937.084
872.939
795.483
701.617
587.252
456.16
287.685
59.505
2.49777
0.265137
0.0809164
0.249314
0.363597
0.454949
0.523007
0.556148
0.726457
998.61
991.33
976.06
953.288
922.123
881.711
831.137
768.912
693.92
602.84
492.937
368.68
199.659
12.546
0.296881
-0.195965
-0.0547851
0.0441533
0.140818
0.223292
0.287189
0.320009
0.39987
891.618
884.206
869.599
847.849
818.036
779.394
731.07
671.671
600.301
513.523
410.329
294.007
130.438
2.65824
-0.203305
-0.46045
-0.215103
-0.151049
-0.0676329
-0.00157898
0.0494462
0.0796511
0.114426
788.613
781.203
767.461
746.986
718.897
682.531
637.113
581.389
514.674
433.514
338.638
230.524
78.2003
1.14518
-0.291167
-0.550679
-0.394389
-0.332918
-0.26833
-0.21776
-0.177023
-0.150711
-0.13364
689.779
682.513
669.826
650.866
624.856
591.237
549.326
498.032
436.852
362.423
277.033
177.689
41.1956
0.0451159
-0.671639
-0.620752
-0.588009
-0.507927
-0.464858
-0.426615
-0.394212
-0.373195
-0.36362
595.196
588.21
576.738
559.508
535.889
505.42
467.521
421.274
366.326
299.506
224.345
134.228
17.4838
-0.702547
-1.06214
-0.742743
-0.784092
-0.69115
-0.660922
-0.630965
-0.6056
-0.588972
-0.581874
504.533
497.938
487.796
472.465
451.48
424.47
390.953
350.191
301.952
243.372
178.908
98.6612
5.16139
-0.826713
-1.15543
-0.901915
-0.94478
-0.880061
-0.854628
-0.831517
-0.812056
-0.798351
-0.791446
417.417
411.337
402.637
389.348
371.199
347.908
319.088
284.162
242.986
193.08
139.44
69.2106
0.308144
-0.98848
-1.12155
-1.06172
-1.07213
-1.05443
-1.04321
-1.02899
-1.01486
-1.00312
-0.995506
334.768
329.326
322.188
311.059
295.909
276.547
252.669
223.832
189.939
148.94
105.676
44.8829
-0.699493
-1.14999
-1.1794
-1.20321
-1.21534
-1.23037
-1.23327
-1.22691
-1.21659
-1.20554
-1.19634
255.907
250.983
245.382
236.359
224.129
208.572
189.464
166.478
139.535
107.069
73.1826
23.2262
-1.19441
-1.28347
-1.22401
-1.3396
-1.37525
-1.41683
-1.43121
-1.42949
-1.42004
-1.40754
-1.39546
175.135
170.565
166.429
159.443
150.062
138.235
123.897
106.874
87.1401
63.6198
39.1522
5.06947
-1.3418
-1.08022
-1.21322
-1.46599
-1.5644
-1.62389
-1.64359
-1.64076
-1.62759
-1.61057
-1.5938
98.1462
94.4245
92.0966
87.7045
81.9193
74.8498
66.7225
57.4769
47.4828
36.458
24.9643
5.73892
-4.08251
-1.05306
-1.25244
-1.66382
-1.81608
-1.86811
-1.878
-1.86391
-1.84057
-1.81521
-1.79164
43.5724
41.6015
41.0542
39.513
37.5886
35.4644
33.3617
31.2059
29.5817
28.9271
29.0165
12.8638
1.59771
-1.97562
-1.65782
-2.11529
-2.19079
-2.16755
-2.14009
-2.09959
-2.05833
-2.02059
-1.98831
7.75335
7.19284
6.63618
5.73493
4.59288
3.25225
1.7699
0.245773
-1.25035
-3.22402
-4.07338
-4.65974
-4.53306
-4.10522
-3.09628
-3.00697
-2.70572
-2.52401
-2.42573
-2.34222
-2.27683
-2.2244
-2.18224
-3.76342
-3.76492
-3.7757
-3.79257
-3.81747
-3.85361
-3.90828
-3.98757
-4.0994
-4.23568
-4.47468
-4.84846
-5.20507
-5.65867
-5.72711
-3.99345
-3.23341
-2.8913
-2.7038
-2.57734
-2.4886
-2.42211
-2.37089
-3.84504
-3.84852
-3.8579
-3.87301
-3.89511
-3.92613
-3.97038
-4.0317
-4.11445
-4.23388
-4.46535
-4.86162
-5.31868
-5.82983
-5.61058
-4.24309
-3.56781
-3.17025
-2.93946
-2.78875
-2.68525
-2.60932
-2.55176
-3.90383
-3.90709
-3.91503
-3.92696
-3.94387
-3.96734
-3.99907
-4.04081
-4.09679
-4.18042
-4.34622
-4.69049
-5.15348
-5.42393
-4.98025
-4.15541
-3.67388
-3.32784
-3.114
-2.9662
-2.86124
-2.78303
-2.72313
-3.96157
-3.96406
-3.9696
-3.97782
-3.98916
-4.00427
-4.02362
-4.04847
-4.07945
-4.11923
-4.1994
-4.38234
-4.63035
-4.71702
-4.45975
-3.9774
-3.64673
-3.40384
-3.23835
-3.11233
-3.01705
-2.94309
-2.88475
-4.022
-4.02372
-4.02664
-4.03115
-4.03717
-4.04457
-4.05334
-4.06376
-4.07413
-4.08256
-4.10268
-4.15912
-4.22736
-4.19468
-4.01616
-3.78611
-3.60972
-3.45882
-3.33898
-3.23905
-3.15808
-3.09196
-3.03779
-4.08141
-4.08201
-4.08278
-4.08401
-4.0854
-4.0865
-4.08693
-4.08605
-4.08177
-4.07262
-4.06498
-4.06454
-4.05091
-3.98206
-3.859
-3.73388
-3.62885
-3.52704
-3.43747
-3.35848
-3.29084
-3.23312
-3.18417
-4.14252
-4.14191
-4.14102
-4.13958
-4.13722
-4.13352
-4.12789
-4.11933
-4.10621
-4.08785
-4.06651
-4.04221
-4.00493
-3.94326
-3.86241
-3.7748
-3.69247
-3.61328
-3.54166
-3.47701
-3.41979
-3.36953
-3.32575
-4.2059
-4.20464
-4.20251
-4.19905
-4.19391
-4.18674
-4.17695
-4.16356
-4.14545
-4.12241
-4.09505
-4.06194
-4.01871
-3.96384
-3.90201
-3.83751
-3.77278
-3.70946
-3.65038
-3.59606
-3.54696
-3.50298
-3.46393
-4.2719
-4.27044
-4.26737
-4.26248
-4.25549
-4.24607
-4.23373
-4.21772
-4.19733
-4.17242
-4.14308
-4.10858
-4.06742
-4.01967
-3.968
-3.91477
-3.86253
-3.81089
-3.76159
-3.71546
-3.67303
-3.63442
-3.59962
-4.34169
-4.34004
-4.33628
-4.33048
-4.32242
-4.31175
-4.2981
-4.28098
-4.25997
-4.23496
-4.20592
-4.17259
-4.13483
-4.0933
-4.04958
-4.00545
-3.96047
-3.91676
-3.87485
-3.83525
-3.79838
-3.76442
-3.73343
-4.41541
-4.41348
-4.40931
-4.40303
-4.39446
-4.38327
-4.36917
-4.35188
-4.33116
-4.30699
-4.27941
-4.24845
-4.21439
-4.1779
-4.14004
-4.10178
-4.06349
-4.02602
-3.98991
-3.95558
-3.92335
-3.89339
-3.86579
-4.49257
-4.49043
-4.48615
-4.47975
-4.47108
-4.45985
-4.44587
-4.42901
-4.40916
-4.38636
-4.36073
-4.33247
-4.30196
-4.2698
-4.2367
-4.20334
-4.1702
-4.13775
-4.10637
-4.07641
-4.04811
-4.02163
-3.99705
-4.5728
-4.57061
-4.56643
-4.56017
-4.55166
-4.54073
-4.52726
-4.51119
-4.49254
-4.47139
-4.44792
-4.42238
-4.39517
-4.36678
-4.33774
-4.30855
-4.27963
-4.25132
-4.22391
-4.19765
-4.17274
-4.1493
-4.12743
-4.656
-4.65394
-4.64997
-4.64397
-4.6358
-4.62537
-4.61264
-4.5976
-4.58033
-4.56096
-4.53968
-4.51678
-4.49259
-4.46752
-4.442
-4.4164
-4.39107
-4.36629
-4.34227
-4.31921
-4.29727
-4.27654
-4.25712
-4.74219
-4.74033
-4.7366
-4.73092
-4.72319
-4.71339
-4.70151
-4.68762
-4.67182
-4.65425
-4.63512
-4.61468
-4.59324
-4.57114
-4.5487
-4.52625
-4.50404
-4.48232
-4.46127
-4.44102
-4.42171
-4.40342
-4.38623
-4.83125
-4.82959
-4.82611
-4.82075
-4.81352
-4.80441
-4.79347
-4.78077
-4.76644
-4.75063
-4.73353
-4.71538
-4.69644
-4.67699
-4.6573
-4.63762
-4.61818
-4.59917
-4.58074
-4.56302
-4.54609
-4.53002
-4.51488
-4.92287
-4.92136
-4.91812
-4.91313
-4.90643
-4.89805
-4.88806
-4.87657
-4.86367
-4.84954
-4.83435
-4.81831
-4.80164
-4.78458
-4.76736
-4.75017
-4.73322
-4.71664
-4.70059
-4.68515
-4.6704
-4.65638
-4.64316
-5.0166
-5.01523
-5.01223
-5.00762
-5.00149
-4.99387
-4.98486
-4.97454
-4.96304
-4.9505
-4.9371
-4.92301
-4.90842
-4.89354
-4.87856
-4.86364
-4.84895
-4.83461
-4.82074
-4.80741
-4.79467
-4.78257
-4.77115
-5.11204
-5.11078
-5.10804
-5.10385
-5.09831
-5.09148
-5.08343
-5.07427
-5.06411
-5.0531
-5.04137
-5.0291
-5.01645
-5.00358
-4.99067
-4.97785
-4.96525
-4.95298
-4.94114
-4.92977
-4.91893
-4.90864
-4.89892
-5.20883
-5.20767
-5.2052
-5.20147
-5.19655
-5.19051
-5.18343
-5.17541
-5.16655
-5.15699
-5.14686
-5.1363
-5.12546
-5.11448
-5.1035
-5.09264
-5.08201
-5.07169
-5.06175
-5.05225
-5.04321
-5.03463
-5.02654
-5.30663
-5.30559
-5.30342
-5.30016
-5.29589
-5.29065
-5.28454
-5.27764
-5.27006
-5.26191
-5.25331
-5.24439
-5.23527
-5.22608
-5.21694
-5.20794
-5.19917
-5.19071
-5.18259
-5.17485
-5.16753
-5.16061
-5.15409
-5.4054
-5.40448
-5.40262
-5.39985
-5.39621
-5.39178
-5.38662
-5.38082
-5.37447
-5.36768
-5.36056
-5.35321
-5.34575
-5.33828
-5.33089
-5.32368
-5.3167
-5.31001
-5.30365
-5.29763
-5.29196
-5.28663
-5.28163
-5.50531
-5.50455
-5.503
-5.50069
-5.49768
-5.49401
-5.48976
-5.48501
-5.47983
-5.47433
-5.46861
-5.46276
-5.45687
-5.45103
-5.44532
-5.43982
-5.43456
-5.42959
-5.42493
-5.42058
-5.41653
-5.41275
-5.40922
-5.60592
-5.60535
-5.60413
-5.6023
-5.59991
-5.597
-5.59365
-5.58992
-5.58589
-5.58165
-5.57729
-5.57288
-5.56851
-5.56425
-5.56017
-5.55632
-5.55274
-5.54945
-5.54646
-5.54375
-5.5413
-5.53905
-5.53695
-5.70617
-5.70586
-5.70499
-5.70367
-5.70193
-5.69984
-5.69744
-5.69479
-5.69197
-5.68904
-5.68608
-5.68316
-5.68035
-5.6777
-5.67527
-5.67309
-5.67119
-5.66957
-5.66825
-5.66719
-5.66634
-5.6656
-5.66492
-2.2677
0.0966747
0.0019792
0.205806
-0.304043
0.0468427
0.118701
0.163318
0.355415
0.12337
0.115858
0.0885591
0.376989
0.132676
0.0655255
0.00569926
0.238621
0.0609278
-0.0342563
-0.106736
0.0438854
-0.0787136
-0.169629
-0.239579
-0.168987
-0.251604
-0.325176
-0.386272
-0.382775
-0.436578
-0.492198
-0.542828
-0.591301
-0.625357
-0.665901
-0.706072
-0.79445
-0.814947
-0.843146
-0.873543
-0.99364
-1.004
-1.02193
-1.04351
-1.18991
-1.1919
-1.20109
-1.21478
-1.384
-1.37843
-1.37991
-1.38649
-1.57637
-1.56347
-1.55788
-1.558
-1.76704
-1.74676
-1.73457
-1.72878
-1.95556
-1.92787
-1.90955
-1.89837
-2.14099
-2.10615
-2.08237
-2.06635
-2.32208
-2.28116
-2.25233
-2.23225
-2.49748
-2.45195
-2.41925
-2.3959
-2.66628
-2.61803
-2.58274
-2.55698
-2.82826
-2.77925
-2.74264
-2.71533
-2.98388
-2.93577
-2.89898
-2.87095
-3.13406
-3.08802
-3.05195
-3.02388
-3.27988
-3.23656
-3.20186
-3.1743
-3.42225
-3.38196
-3.34903
-3.32239
-3.56192
-3.52474
-3.49381
-3.46838
-3.69942
-3.66532
-3.63652
-3.61249
-3.8352
-3.80407
-3.77744
-3.75494
-3.96958
-3.9413
-3.91683
-3.89593
-4.10283
-4.07725
-4.05492
-4.03566
-4.23515
-4.21213
-4.19188
-4.17428
-4.36671
-4.34612
-4.3279
-4.31195
-4.49764
-4.47938
-4.46312
-4.44881
-4.62807
-4.61202
-4.59768
-4.58499
-4.75809
-4.74417
-4.73168
-4.7206
-4.88781
-4.87593
-4.86525
-4.85575
-5.01729
-5.0074
-4.99848
-4.99052
-5.14664
-5.13866
-5.13146
-5.12503
-5.27591
-5.2698
-5.26428
-5.25933
-5.4052
-5.4009
-5.39701
-5.39353
-5.53458
-5.53204
-5.52974
-5.52768
-5.66414
-5.66331
-5.66256
-5.66188
0.235065
0.266205
0.277052
0.269709
0.259482
0.249731
0.239998
0.230572
0.221737
0.213582
0.206158
0.199507
0.193654
0.188619
0.184416
0.181053
0.178537
0.176868
0.176041
0.15764
0.158714
0.157397
0.148251
0.136328
0.124676
0.113538
0.103023
0.0933245
0.0845056
0.0765781
0.0695457
0.0634077
0.0581617
0.0538044
0.0503317
0.047739
0.0460225
0.0451727
0.0645906
0.0508296
0.0396585
0.0260701
0.0115842
-0.00204442
-0.014611
-0.0261597
-0.0366415
-0.0460574
-0.054437
-0.06181
-0.068202
-0.0736352
-0.0781285
-0.0816976
-0.0843558
-0.0861128
-0.0869819
-0.0366785
-0.061519
-0.0809557
-0.0989507
-0.115832
-0.131147
-0.144935
-0.157344
-0.168453
-0.178336
-0.187063
-0.194694
-0.201276
-0.206846
-0.211437
-0.215075
-0.217778
-0.219562
-0.220444
-0.154237
-0.183669
-0.207518
-0.228306
-0.246833
-0.263281
-0.277875
-0.290841
-0.302343
-0.312507
-0.321436
-0.329209
-0.33589
-0.341527
-0.346162
-0.349827
-0.352547
-0.35434
-0.355225
-0.285665
-0.315695
-0.340943
-0.362787
-0.381957
-0.39883
-0.41371
-0.426855
-0.438463
-0.448686
-0.45764
-0.465418
-0.472088
-0.477708
-0.482321
-0.485965
-0.488666
-0.490445
-0.491323
-0.428168
-0.456474
-0.481014
-0.502454
-0.521291
-0.537884
-0.552524
-0.565453
-0.576864
-0.586908
-0.595702
-0.603335
-0.609878
-0.615387
-0.619908
-0.623476
-0.626119
-0.62786
-0.628719
-0.579154
-0.604405
-0.626901
-0.646876
-0.664589
-0.680297
-0.694228
-0.706575
-0.717501
-0.727137
-0.735586
-0.742928
-0.749226
-0.754531
-0.758886
-0.762323
-0.76487
-0.766547
-0.767374
-0.736268
-0.757834
-0.777542
-0.79537
-0.811394
-0.825756
-0.838598
-0.850055
-0.860246
-0.86927
-0.877206
-0.88412
-0.890063
-0.895076
-0.899195
-0.902449
-0.904861
-0.906449
-0.907232
-0.897618
-0.915301
-0.931874
-0.947173
-0.961153
-0.973849
-0.985325
-0.995654
-1.00491
-1.01315
-1.02043
-1.0268
-1.03229
-1.03693
-1.04075
-1.04377
-1.04602
-1.04749
-1.04822
-1.06176
-1.0756
-1.08894
-1.10154
-1.11329
-1.12412
-1.13405
-1.14308
-1.15125
-1.15858
-1.16509
-1.17082
-1.17577
-1.17998
-1.18345
-1.1862
-1.18824
-1.18959
-1.19025
-1.2276
-1.23776
-1.24791
-1.2578
-1.26724
-1.27612
-1.28439
-1.29203
-1.29901
-1.30533
-1.311
-1.31601
-1.32037
-1.32409
-1.32716
-1.32961
-1.33143
-1.33263
-1.33322
-1.39429
-1.401
-1.40811
-1.41534
-1.42249
-1.4294
-1.43599
-1.44217
-1.44792
-1.45318
-1.45795
-1.4622
-1.46593
-1.46912
-1.47177
-1.47389
-1.47547
-1.47651
-1.47702
-1.5612
-1.5647
-1.56894
-1.57365
-1.57858
-1.58357
-1.58848
-1.59321
-1.5977
-1.60189
-1.60574
-1.6092
-1.61227
-1.61492
-1.61713
-1.61891
-1.62023
-1.62111
-1.62154
-1.72777
-1.72832
-1.72992
-1.73227
-1.7351
-1.73824
-1.74153
-1.74485
-1.74811
-1.75123
-1.75415
-1.75684
-1.75924
-1.76134
-1.7631
-1.76453
-1.7656
-1.76631
-1.76666
-1.89357
-1.89145
-1.89062
-1.89079
-1.89168
-1.89309
-1.89485
-1.89682
-1.89889
-1.90097
-1.903
-1.90492
-1.90667
-1.90822
-1.90955
-1.91063
-1.91145
-1.912
-1.91226
-2.05818
-2.05367
-2.05068
-2.04889
-2.04801
-2.04782
-2.04816
-2.04887
-2.04982
-2.05093
-2.0521
-2.05328
-2.05441
-2.05544
-2.05634
-2.05709
-2.05766
-2.05804
-2.05823
-2.22127
-2.21467
-2.20978
-2.20625
-2.20379
-2.20218
-2.20123
-2.20078
-2.20071
-2.2009
-2.20128
-2.20177
-2.20231
-2.20285
-2.20335
-2.20378
-2.20412
-2.20435
-2.20446
-2.38245
-2.37415
-2.36764
-2.36266
-2.35881
-2.35593
-2.35387
-2.35238
-2.35138
-2.35075
-2.3504
-2.35025
-2.35025
-2.35033
-2.35046
-2.35059
-2.35071
-2.3508
-2.35084
-2.54163
-2.53195
-2.52414
-2.51788
-2.51287
-2.50887
-2.50594
-2.50351
-2.50168
-2.50031
-2.49932
-2.4986
-2.49811
-2.49778
-2.49756
-2.49743
-2.49735
-2.49731
-2.49728
-2.69864
-2.68793
-2.6791
-2.67184
-2.66589
-2.66104
-2.65716
-2.654
-2.65148
-2.64948
-2.64793
-2.64672
-2.64579
-2.6451
-2.64458
-2.6442
-2.64395
-2.64378
-2.6437
-2.85342
-2.842
-2.83243
-2.82442
-2.81774
-2.81219
-2.8076
-2.80381
-2.80071
-2.79818
-2.79614
-2.79451
-2.79321
-2.7922
-2.79142
-2.79083
-2.79042
-2.79016
-2.79001
-3.00598
-2.99415
-2.9841
-2.97557
-2.96836
-2.96227
-2.95715
-2.95287
-2.94929
-2.94633
-2.9439
-2.94191
-2.9403
-2.93902
-2.93802
-2.93726
-2.93671
-2.93637
-2.93616
-3.15639
-3.14441
-3.13412
-3.12529
-3.11772
-3.11126
-3.10577
-3.10111
-3.09718
-3.09389
-3.09114
-3.08887
-3.08701
-3.08551
-3.08432
-3.08342
-3.08276
-3.08234
-3.0821
-3.30478
-3.29289
-3.28255
-3.27359
-3.26585
-3.25917
-3.25343
-3.24853
-3.24435
-3.24081
-3.23783
-3.23534
-3.23329
-3.23162
-3.23029
-3.22927
-3.22853
-3.22805
-3.22778
-3.45131
-3.43967
-3.42947
-3.42055
-3.41277
-3.40601
-3.40015
-3.39511
-3.39077
-3.38708
-3.38394
-3.38131
-3.37912
-3.37733
-3.37589
-3.37478
-3.37398
-3.37345
-3.37317
-3.59615
-3.58491
-3.57498
-3.56623
-3.55855
-3.55182
-3.54595
-3.54086
-3.53647
-3.53269
-3.52947
-3.52675
-3.52448
-3.52261
-3.5211
-3.51994
-3.51908
-3.51853
-3.51823
-3.73946
-3.72873
-3.71919
-3.71072
-3.70324
-3.69665
-3.69087
-3.68583
-3.68145
-3.67767
-3.67442
-3.67167
-3.66936
-3.66745
-3.66591
-3.66471
-3.66383
-3.66326
-3.66296
-3.88141
-3.87128
-3.86221
-3.85412
-3.84693
-3.84056
-3.83495
-3.83003
-3.82574
-3.82201
-3.8188
-3.81607
-3.81376
-3.81185
-3.81031
-3.8091
-3.80821
-3.80764
-3.80734
-4.02215
-4.01268
-4.00416
-3.99652
-3.9897
-3.98363
-3.97825
-3.97352
-3.96937
-3.96576
-3.96264
-3.95996
-3.9577
-3.95583
-3.9543
-3.95311
-3.95223
-3.95166
-3.95137
-4.16184
-4.15307
-4.14516
-4.13802
-4.13163
-4.12591
-4.12083
-4.11634
-4.11239
-4.10894
-4.10594
-4.10337
-4.10119
-4.09938
-4.0979
-4.09675
-4.09589
-4.09534
-4.09506
-4.3006
-4.29258
-4.2853
-4.27872
-4.2728
-4.26749
-4.26275
-4.25855
-4.25484
-4.25159
-4.24876
-4.24633
-4.24426
-4.24253
-4.24113
-4.24002
-4.23921
-4.23867
-4.23841
-4.43858
-4.43132
-4.42471
-4.41872
-4.4133
-4.40844
-4.40408
-4.4002
-4.39677
-4.39375
-4.39113
-4.38886
-4.38692
-4.38531
-4.38399
-4.38295
-4.38219
-4.38169
-4.38145
-4.57588
-4.56939
-4.56348
-4.55809
-4.55322
-4.54882
-4.54487
-4.54135
-4.53823
-4.53548
-4.53307
-4.53099
-4.52922
-4.52773
-4.52652
-4.52556
-4.52486
-4.52439
-4.52418
-4.71261
-4.70691
-4.70169
-4.69694
-4.69262
-4.68871
-4.6852
-4.68206
-4.67927
-4.67681
-4.67465
-4.67278
-4.67118
-4.66984
-4.66874
-4.66788
-4.66724
-4.66682
-4.66663
-4.84887
-4.84395
-4.83945
-4.83533
-4.83158
-4.82819
-4.82513
-4.82239
-4.81994
-4.81778
-4.81589
-4.81425
-4.81284
-4.81166
-4.81069
-4.80993
-4.80936
-4.80899
-4.80882
-4.98475
-4.98062
-4.97683
-4.97335
-4.97018
-4.96731
-4.96472
-4.96239
-4.96031
-4.95846
-4.95685
-4.95544
-4.95423
-4.95322
-4.95239
-4.95174
-4.95125
-4.95094
-4.9508
-5.12035
-5.11699
-5.11391
-5.11108
-5.10849
-5.10615
-5.10402
-5.10211
-5.10041
-5.09889
-5.09756
-5.0964
-5.09541
-5.09457
-5.09389
-5.09335
-5.09295
-5.09268
-5.09257
-5.25573
-5.25315
-5.25076
-5.24858
-5.24658
-5.24476
-5.24311
-5.24163
-5.2403
-5.23912
-5.23808
-5.23718
-5.2364
-5.23575
-5.23521
-5.23479
-5.23447
-5.23427
-5.23418
-5.39098
-5.38915
-5.38747
-5.38592
-5.3845
-5.38321
-5.38204
-5.38098
-5.38004
-5.37919
-5.37845
-5.3778
-5.37725
-5.37678
-5.3764
-5.37609
-5.37587
-5.37572
-5.37567
-5.52617
-5.52509
-5.52409
-5.52317
-5.52233
-5.52156
-5.52086
-5.52023
-5.51967
-5.51916
-5.51872
-5.51833
-5.518
-5.51772
-5.51749
-5.51731
-5.51717
-5.51708
-5.51706
-5.66139
-5.66104
-5.66071
-5.66041
-5.66013
-5.65988
-5.65965
-5.65944
-5.65925
-5.65909
-5.65894
-5.65881
-5.6587
-5.65861
-5.65853
-5.65847
-5.65843
-5.6584
-5.65839
)
;

boundaryField
{
    leftWall
    {
        type            calculated;
        value           nonuniform List<scalar> 
50
(
1955.64
1896.93
1838.38
1780.01
1721.86
1663.94
1606.26
1548.83
1459.67
1340.33
1223.38
1109.32
998.61
891.618
788.613
689.779
595.196
504.533
417.417
334.768
255.907
175.135
98.1462
43.5724
7.75335
-3.76342
-3.84504
-3.90383
-3.96157
-4.022
-4.08141
-4.14252
-4.2059
-4.2719
-4.34169
-4.41541
-4.49257
-4.5728
-4.656
-4.74219
-4.83125
-4.92287
-5.0166
-5.11204
-5.20883
-5.30663
-5.4054
-5.50531
-5.60592
-5.70617
)
;
    }
    rightWall
    {
        type            calculated;
        value           nonuniform List<scalar> 
50
(
0.690419
0.631339
0.57199
0.51238
0.452509
0.392376
0.331979
0.271315
0.176041
0.0451727
-0.0869819
-0.220444
-0.355225
-0.491323
-0.628719
-0.767374
-0.907232
-1.04822
-1.19025
-1.33322
-1.47702
-1.62154
-1.76666
-1.91226
-2.05823
-2.20446
-2.35084
-2.49728
-2.6437
-2.79001
-2.93616
-3.0821
-3.22778
-3.37317
-3.51823
-3.66296
-3.80734
-3.95137
-4.09506
-4.23841
-4.38145
-4.52418
-4.66663
-4.80882
-4.9508
-5.09257
-5.23418
-5.37567
-5.51706
-5.65839
)
;
    }
    lowerWall
    {
        type            calculated;
        value           nonuniform List<scalar> 
62
(
1985.07
1980.53
1965.05
1940.4
1907.41
1865.4
1813.52
1750.87
1676.38
1589.03
1486.81
1368.16
1232.67
1077.52
896.454
689.552
477.296
296.449
179.244
129.338
84.4843
78.6581
87.2878
86.9934
85.6075
77.4929
58.927
34.0443
13.6967
4.65244
1.56215
-2.19088
0.159345
0.0645774
0.268403
0.761185
0.701572
0.641057
0.579352
0.516351
0.452304
0.381839
0.296821
0.790614
0.792905
0.792497
0.789495
0.784764
0.778968
0.772582
0.765925
0.75925
0.752764
0.746622
0.740944
0.735826
0.73134
0.727542
0.724472
0.722157
0.720615
0.719849
)
;
    }
    atmosphere
    {
        type            calculated;
        value           nonuniform List<scalar> 
46
(
-5.75548
-5.75545
-5.75475
-5.7537
-5.75234
-5.75071
-5.74885
-5.74682
-5.74467
-5.74248
-5.74029
-5.73819
-5.73621
-5.73442
-5.73286
-5.73155
-5.73051
-5.72975
-5.72927
-5.72906
-5.72904
-5.72904
-5.72904
-5.72904
-5.72904
-5.72904
-5.72904
-5.72904
-5.72904
-5.72904
-5.72904
-5.72904
-5.72904
-5.72904
-5.72904
-5.72904
-5.72904
-5.72904
-5.72904
-5.72904
-5.72904
-5.72904
-5.72904
-5.72904
-5.72904
-5.72904
)
;
    }
    defaultFaces
    {
        type            empty;
    }
}


// ************************************************************************* //
