/*--------------------------------*- C++ -*----------------------------------*\
| =========                 |                                                 |
| \\      /  F ield         | OpenFOAM: The Open Source CFD Toolbox           |
|  \\    /   O peration     | Version:  2206                                  |
|   \\  /    A nd           | Website:  www.openfoam.com                      |
|    \\/     M anipulation  |                                                 |
\*---------------------------------------------------------------------------*/
FoamFile
{
    version     2.0;
    format      ascii;
    arch        "LSB;label=32;scalar=64";
    class       volScalarField;
    location    "0.1";
    object      p_rgh;
}
// * * * * * * * * * * * * * * * * * * * * * * * * * * * * * * * * * * * * * //

dimensions      [1 -1 -2 0 0 0 0];

internalField   nonuniform List<scalar> 
2268
(
1985.07
1980.53
1965.05
1940.4
1907.41
1865.4
1813.52
1750.87
1676.38
1589.03
1486.81
1368.16
1232.67
1077.52
896.454
689.552
477.296
296.449
179.244
129.338
84.4843
78.6581
87.2878
1985.22
1980.67
1965.14
1940.49
1907.5
1865.45
1813.52
1750.78
1676.15
1588.6
1486.06
1366.85
1230.51
1074.27
892.003
683.502
469.054
282.546
149.158
85.8418
59.4462
69.8444
86.4908
1985.53
1980.95
1965.34
1940.7
1907.69
1865.58
1813.54
1750.63
1675.74
1587.8
1484.6
1364.31
1226.37
1067.96
883.057
670.342
449.369
240.64
72.651
20.7777
34.9716
55.9763
79.2371
1986.02
1981.38
1965.68
1941.04
1908
1865.8
1813.62
1750.47
1675.2
1586.68
1482.5
1360.66
1220.53
1059
868.797
645.65
404.136
164.803
24.8583
8.46454
14.0817
33.7397
62.0759
1986.72
1982
1966.2
1941.55
1908.48
1866.17
1813.81
1750.36
1674.64
1585.4
1480.01
1356.21
1213.31
1047.6
848.437
607.4
302.823
60.1659
6.59002
5.07219
5.86174
14.995
39.7944
1987.66
1982.83
1966.93
1942.29
1909.19
1866.77
1814.21
1750.44
1674.21
1584.16
1477.38
1351.38
1205.38
1034.42
820.977
535.849
155.805
11.3261
3.99931
3.72353
4.07382
5.7008
20.3746
1988.84
1983.85
1967.87
1943.23
1910.09
1867.56
1814.81
1750.68
1673.91
1582.96
1474.61
1346.31
1197.45
1020.43
786.916
406.105
52.7839
5.28729
2.92656
2.90804
3.13947
3.21747
10.4298
1990.27
1985.05
1968.99
1944.37
1911.19
1868.54
1815.58
1751.06
1673.71
1581.78
1471.68
1340.94
1189.62
1004.92
748.521
256.042
14.842
3.24018
2.44023
2.47013
2.58179
2.19754
4.36376
0.790614
0.792905
0.792497
0.789495
0.784764
0.778968
0.772582
0.765925
0.75925
0.752764
0.746622
0.740944
0.735826
0.73134
0.727542
0.724472
0.722157
0.720615
0.719849
0.78986
0.793028
0.792828
0.789802
0.784994
0.779107
0.772622
0.765896
0.759175
0.752652
0.746482
0.740781
0.735645
0.731144
0.727335
0.724258
0.721938
0.720393
0.719627
0.788204
0.793334
0.793534
0.790445
0.785468
0.779404
0.77276
0.765887
0.759045
0.752429
0.746184
0.740427
0.735248
0.730716
0.726884
0.723789
0.721458
0.719906
0.719137
0.785358
0.793888
0.794673
0.791451
0.786188
0.779843
0.772943
0.76585
0.75883
0.752073
0.74572
0.739879
0.734637
0.730058
0.726191
0.723071
0.720722
0.71916
0.718385
0.781215
0.794822
0.796316
0.792832
0.78714
0.780401
0.773154
0.765768
0.758514
0.751574
0.745079
0.73913
0.733806
0.729166
0.725255
0.722102
0.719731
0.718154
0.717374
0.776027
0.795908
0.798593
0.794559
0.788286
0.781041
0.773358
0.765613
0.758076
0.750915
0.744249
0.738171
0.73275
0.728037
0.724071
0.72088
0.718482
0.716888
0.716099
0.76442
0.795901
0.801677
0.796601
0.789551
0.781722
0.77352
0.765353
0.757489
0.750075
0.743216
0.73699
0.731458
0.726662
0.722636
0.7194
0.716972
0.715359
0.714561
0.738261
0.794582
0.805339
0.798993
0.790838
0.782353
0.77358
0.764945
0.75672
0.74903
0.741959
0.735574
0.729922
0.725036
0.720943
0.71766
0.715198
0.713564
0.712756
1993.14
1987.42
1971.36
1946.77
1913.55
1870.76
1817.49
1752.44
1674.21
1580.79
1468.05
1333.95
1178.68
975.869
632.992
111.214
4.74138
1.95777
1.95582
2.04526
2.00373
1.53355
0.535593
1998.99
1992.8
1976.72
1952.3
1919.2
1876.43
1823.06
1757.66
1678.77
1584
1468.68
1332.38
1172.94
945.526
380.984
15.0166
2.02201
1.47405
1.6226
1.6931
1.66065
1.47999
1.29406
2007.23
2000.59
1984.6
1960.52
1927.74
1885.31
1832.27
1767.09
1688.37
1593.31
1477.19
1341.82
1177.53
897.843
171.837
3.39517
1.2242
1.27447
1.41197
1.49225
1.52826
1.52408
1.73117
2018.37
2011.36
1995.63
1972.08
1939.94
1898.27
1846.13
1781.99
1704.53
1610.67
1496.3
1365.21
1196.74
742.335
60.0097
1.75876
1.04173
1.16836
1.27664
1.36469
1.43212
1.46525
1.6359
2032.85
2025.57
2010.31
1987.53
1956.37
1915.96
1865.38
1803.16
1728.17
1637.08
1527.18
1402.92
1233.9
558.126
11.4655
0.996973
0.991509
1.0825
1.17721
1.25806
1.32146
1.35426
1.43418
2051.06
2043.65
2029.04
2007.29
1977.48
1938.83
1890.51
1831.11
1759.74
1672.96
1569.77
1453.45
1289.88
376.189
2.16808
0.739735
0.94716
1.01011
1.09228
1.15807
1.2089
1.23909
1.27388
2073.25
2065.84
2052.1
2031.62
2003.53
1967.17
1921.75
1866.02
1799.31
1718.15
1623.27
1515.16
1270.01
246.398
1.47347
0.742714
0.891148
0.952274
1.01637
1.06691
1.10762
1.13393
1.151
2099.61
2092.34
2079.65
2060.69
2034.68
2001.07
1959.16
1907.86
1846.68
1772.25
1686.86
1587.52
1223.38
146.781
0.847176
0.790607
0.822325
0.902073
0.944994
0.983218
1.01562
1.03664
1.04621
2130.22
2123.23
2111.76
2094.53
2070.91
2040.44
2002.54
1956.3
1901.35
1834.53
1759.37
1669.25
1147.15
73.6191
0.485576
0.792518
0.751047
0.843926
0.874114
0.904061
0.929426
0.946052
0.953149
2164.75
2158.16
2148.01
2132.68
2111.7
2084.69
2051.17
2010.41
1962.17
1903.59
1839.13
1758.88
1027.44
26.5184
0.505842
0.758342
0.715461
0.780175
0.805596
0.828702
0.848163
0.861867
0.868772
2202.83
2196.75
2188.05
2174.76
2156.61
2133.32
2104.5
2069.57
2028.4
1978.49
1924.85
1854.62
839.869
3.85904
0.664025
0.723745
0.71333
0.730992
0.742203
0.75642
0.770553
0.782293
0.789907
2245.37
2239.93
2232.79
2221.66
2206.51
2187.15
2163.27
2134.43
2100.53
2059.53
2016.26
1955.43
600.658
0.813308
0.73189
0.708072
0.695335
0.680237
0.677336
0.683702
0.694018
0.705069
0.714262
2291.68
2286.75
2281.15
2272.12
2259.89
2244.32
2225.2
2202.19
2175.23
2142.72
2108.78
2058.59
423.896
0.757583
0.812216
0.697011
0.660607
0.618976
0.604591
0.606315
0.615765
0.628261
0.640344
2335.86
2331.26
2327.11
2320.09
2310.66
2298.76
2284.32
2267.16
2247.25
2223.42
2198.58
2162.84
381.45
1.08123
0.947829
0.695037
0.596605
0.53711
0.51741
0.520239
0.53341
0.550422
0.567197
2381.8
2377.85
2375.4
2370.73
2364.53
2356.9
2348.02
2337.78
2326.54
2310.66
2284.41
2115.55
459.869
5.57674
1.0342
0.62243
0.47012
0.418078
0.408192
0.422278
0.445619
0.470977
0.494552
2161.59
2140.24
2120.99
2085.71
2036.53
1972.38
1891.53
1790.06
1672.56
1468.63
1257.43
694.452
482.199
50.2868
0.924839
0.304518
0.22077
0.243838
0.271293
0.311796
0.35305
0.3908
0.423075
475.274
452.16
429.481
392.64
346.047
291.532
232.07
171.856
114.94
35.8135
-1.53674
-2.12254
17.45
84.8007
8.02914
-0.456557
-0.16889
0.0125707
0.110851
0.194356
0.259747
0.312177
0.354341
-1.10165
-1.10314
-1.11393
-1.13079
-1.1557
-1.19184
-1.24651
-1.3258
-1.43762
-1.57391
-1.8129
-2.18663
-2.54264
17.2233
11.9794
-1.25457
-0.56999
-0.229486
-0.0420251
0.0844336
0.173177
0.239668
0.290886
-1.05807
-1.06155
-1.07094
-1.08604
-1.10814
-1.13916
-1.18341
-1.24473
-1.32748
-1.4469
-1.67818
-2.07175
-2.50058
-2.98258
8.85922
-1.45563
-0.780837
-0.383276
-0.152488
-0.00177831
0.101722
0.177652
0.235212
-0.991667
-0.994926
-1.00287
-1.0148
-1.03171
-1.05518
-1.08691
-1.12864
-1.18463
-1.26825
-1.43397
-1.77534
-2.18365
0.364732
3.43437
-1.24318
-0.761722
-0.415675
-0.201838
-0.0540379
0.0509278
0.129132
0.189031
-0.924208
-0.926704
-0.932241
-0.940463
-0.951798
-0.966909
-0.986266
-1.01111
-1.04209
-1.08187
-1.16204
-1.31972
-1.30368
-1.45094
-1.40909
-0.940035
-0.609375
-0.366479
-0.200988
-0.0749757
0.0203119
0.0942635
0.152604
-0.859444
-0.861168
-0.864093
-0.868601
-0.874623
-0.882017
-0.890786
-0.901204
-0.911574
-0.920011
-0.940131
-0.996566
-1.0648
-1.03211
-0.853563
-0.62356
-0.447172
-0.296272
-0.176424
-0.0765014
0.00446901
0.0705938
0.124761
-0.793662
-0.794262
-0.795036
-0.796268
-0.797658
-0.798757
-0.79918
-0.798306
-0.794021
-0.784878
-0.777231
-0.776793
-0.763168
-0.694311
-0.571248
-0.446135
-0.341105
-0.239291
-0.149728
-0.0707369
-0.00308839
0.0546254
0.103581
-0.729583
-0.728965
-0.728083
-0.726643
-0.724279
-0.720576
-0.714949
-0.706392
-0.693266
-0.674908
-0.653567
-0.629266
-0.591985
-0.530321
-0.449472
-0.361857
-0.27953
-0.200342
-0.128721
-0.0640688
-0.00684615
0.0434114
0.0871904
-0.667763
-0.666506
-0.664377
-0.660916
-0.655772
-0.648601
-0.638818
-0.625429
-0.607316
-0.584279
-0.556914
-0.523805
-0.480574
-0.425702
-0.36387
-0.29937
-0.234648
-0.171324
-0.112246
-0.0579238
-0.00882161
0.0351525
0.074201
-0.60857
-0.607112
-0.604037
-0.599147
-0.592157
-0.582736
-0.570398
-0.55439
-0.534003
-0.50909
-0.479749
-0.445251
-0.40409
-0.356343
-0.304666
-0.251443
-0.199198
-0.147559
-0.0982627
-0.0521281
-0.00969624
0.0289075
0.0637061
-0.55317
-0.551517
-0.547759
-0.541957
-0.533894
-0.523227
-0.509578
-0.492457
-0.471444
-0.446438
-0.417398
-0.384064
-0.346304
-0.30478
-0.261057
-0.216921
-0.171941
-0.128232
-0.0863203
-0.046726
-0.00985768
0.0241065
0.0550975
-0.501688
-0.499757
-0.495594
-0.489315
-0.480744
-0.469548
-0.45545
-0.438156
-0.417444
-0.393275
-0.365688
-0.334733
-0.300667
-0.264184
-0.226321
-0.188056
-0.14977
-0.112301
-0.0761868
-0.0418589
-0.00963189
0.0203291
0.0479269
-0.453661
-0.451512
-0.447232
-0.44084
-0.432161
-0.420934
-0.406961
-0.390093
-0.370244
-0.347445
-0.321812
-0.293551
-0.263043
-0.230882
-0.197788
-0.164428
-0.131288
-0.098837
-0.0674593
-0.0374961
-0.00919895
0.0172884
0.0418646
-0.408694
-0.406507
-0.402325
-0.396063
-0.387553
-0.376622
-0.363151
-0.347085
-0.328432
-0.307282
-0.283809
-0.258275
-0.231063
-0.202668
-0.173629
-0.14444
-0.11552
-0.0872118
-0.0598019
-0.0335425
-0.00863285
0.0148053
0.0366754
-0.366699
-0.364636
-0.360667
-0.354664
-0.346497
-0.336071
-0.323333
-0.308295
-0.291025
-0.271653
-0.250379
-0.227473
-0.203283
-0.178217
-0.152695
-0.127098
-0.101766
-0.0769853
-0.052971
-0.0299116
-0.007967
0.0127616
0.0321873
-0.327691
-0.325831
-0.322107
-0.316418
-0.308692
-0.298889
-0.287016
-0.273126
-0.25732
-0.23975
-0.220618
-0.200181
-0.178743
-0.156639
-0.134205
-0.111748
-0.0895437
-0.0678261
-0.0467711
-0.0265263
-0.00721741
0.0110726
0.028268
-0.291559
-0.289896
-0.286415
-0.281063
-0.27383
-0.264719
-0.253777
-0.24108
-0.226748
-0.210935
-0.193838
-0.175688
-0.156748
-0.137295
-0.117604
-0.0979279
-0.0784896
-0.0594777
-0.0410509
-0.0233251
-0.00639473
0.00967177
0.024811
-0.257979
-0.256478
-0.253233
-0.24824
-0.241539
-0.233162
-0.223178
-0.211679
-0.198788
-0.184656
-0.169466
-0.153424
-0.136757
-0.119696
-0.102469
-0.0852865
-0.0683292
-0.051756
-0.0357024
-0.020266
-0.00551258
0.00850152
0.0217258
-0.226519
-0.225148
-0.222145
-0.217539
-0.211405
-0.20379
-0.194775
-0.184456
-0.172957
-0.160422
-0.147018
-0.132926
-0.118342
-0.103463
-0.0884792
-0.0735637
-0.0588704
-0.044532
-0.0306569
-0.0173248
-0.00459027
0.00750786
0.0189321
-0.196768
-0.195506
-0.19276
-0.188575
-0.183037
-0.176202
-0.168155
-0.158994
-0.148838
-0.137822
-0.126096
-0.113823
-0.101171
-0.0883078
-0.0753922
-0.0625711
-0.0499736
-0.0377078
-0.0258595
-0.014495
-0.00365419
0.00663787
0.0163558
-0.168359
-0.167203
-0.164735
-0.161001
-0.156083
-0.150042
-0.142961
-0.134938
-0.126083
-0.116521
-0.106389
-0.0958307
-0.084991
-0.0740134
-0.0630333
-0.0521735
-0.0415408
-0.0312218
-0.021284
-0.0117813
-0.00273543
0.00583828
0.0139264
-0.140969
-0.139925
-0.137756
-0.134498
-0.130221
-0.124987
-0.118875
-0.111976
-0.104394
-0.0962413
-0.0876417
-0.0787213
-0.0696066
-0.06042
-0.0512758
-0.0422766
-0.0335091
-0.0250416
-0.0169239
-0.00919036
-0.00186938
0.00505444
0.0115751
-0.114539
-0.113624
-0.111763
-0.108987
-0.105352
-0.100918
-0.0957585
-0.0899579
-0.0836108
-0.0768209
-0.0696974
-0.0623509
-0.0548901
-0.0474188
-0.0400329
-0.0328161
-0.0258375
-0.0191494
-0.0127869
-0.0067703
-0.00110247
0.00422825
0.00923301
-0.0892534
-0.0884957
-0.0869426
-0.0846375
-0.0816233
-0.0779573
-0.0737074
-0.0689517
-0.0637778
-0.05828
-0.0525558
-0.0467021
-0.0408127
-0.0349756
-0.0292698
-0.0237624
-0.018506
-0.0135373
-0.00887727
-0.00452925
-0.000479711
0.00329887
0.00682985
-0.0646757
-0.0641057
-0.0628791
-0.0610513
-0.0586585
-0.0557544
-0.0524016
-0.048672
-0.0446449
-0.0404049
-0.0360381
-0.0316295
-0.0272598
-0.0230033
-0.0189243
-0.0150752
-0.011494
-0.00820353
-0.00521076
-0.0025042
-5.06447e-05
0.00220172
0.00429377
-0.039723
-0.0394168
-0.0385465
-0.0372237
-0.0354911
-0.0333971
-0.0309962
-0.0283503
-0.0255273
-0.0225994
-0.0196396
-0.0167192
-0.0139052
-0.0112569
-0.00882417
-0.00664478
-0.00474334
-0.00313074
-0.0018041
-0.000746428
9.84473e-05
0.000839953
0.00152696
-1.61301
0.630761
0.535455
0.739273
0.432098
0.712108
0.77738
0.821981
1.15581
0.909894
0.899726
0.872416
1.28755
1.042
0.974578
0.91475
1.27297
1.09518
0.999989
0.927509
1.20333
1.08073
0.98981
0.919861
1.11565
1.03303
0.959458
0.898363
1.02705
0.973251
0.917631
0.867
0.943722
0.909666
0.869122
0.828951
0.865768
0.845271
0.817072
0.786674
0.791772
0.781415
0.763479
0.741898
0.720693
0.718709
0.709514
0.695824
0.651797
0.657369
0.655893
0.649309
0.584627
0.597529
0.603118
0.602999
0.519146
0.539435
0.551623
0.557415
0.455823
0.48352
0.50184
0.513015
0.39559
0.430431
0.454207
0.470231
0.339697
0.380609
0.409446
0.429522
0.289493
0.335019
0.367717
0.391066
0.245884
0.294129
0.32942
0.355188
0.2091
0.258105
0.294717
0.322024
0.178677
0.226782
0.263571
0.291606
0.153685
0.199728
0.235793
0.263863
0.133066
0.176384
0.211086
0.238643
0.115886
0.156177
0.189109
0.215747
0.101415
0.138595
0.169522
0.194952
0.089102
0.123205
0.152006
0.176035
0.0785198
0.109646
0.136276
0.158779
0.0693328
0.0976146
0.122079
0.14298
0.0612795
0.0868597
0.109192
0.128453
0.054154
0.0771718
0.0974215
0.115028
0.0477901
0.0683743
0.0865979
0.10255
0.0420503
0.0603166
0.0765718
0.0908825
0.0368171
0.0528679
0.0672109
0.0798981
0.0319878
0.0459124
0.0583964
0.0694823
0.0274696
0.0393461
0.0500208
0.0595305
0.0231766
0.0330736
0.0419858
0.049946
0.0190276
0.0270061
0.0342001
0.0406393
0.0149446
0.0210596
0.0265783
0.0315264
0.0108501
0.0151531
0.0190387
0.0225275
0.00666867
0.0092102
0.0115058
0.0135691
0.00230422
0.00313511
0.00388502
0.0045593
0.768532
0.799672
0.810519
0.803176
0.792949
0.783198
0.773465
0.764039
0.755204
0.747049
0.739625
0.732974
0.727121
0.722086
0.717883
0.71452
0.712004
0.710335
0.709508
0.816301
0.817375
0.816059
0.806913
0.794989
0.783338
0.772199
0.761684
0.751986
0.743167
0.73524
0.728207
0.722069
0.716823
0.712466
0.708993
0.706401
0.704684
0.703834
0.848447
0.834686
0.823515
0.809926
0.79544
0.781812
0.769245
0.757696
0.747215
0.737799
0.729419
0.722046
0.715654
0.710221
0.705728
0.702158
0.6995
0.697743
0.696874
0.872372
0.847532
0.828095
0.8101
0.793218
0.777904
0.764115
0.751707
0.740597
0.730715
0.721987
0.714356
0.707775
0.702204
0.697613
0.693976
0.691273
0.689488
0.688607
0.880009
0.850576
0.826727
0.805939
0.787412
0.770964
0.75637
0.743404
0.731902
0.721738
0.712809
0.705036
0.698355
0.692718
0.688083
0.684418
0.681698
0.679905
0.67902
0.873775
0.843744
0.818497
0.796652
0.777483
0.76061
0.74573
0.732585
0.720977
0.710754
0.701799
0.694022
0.687352
0.681732
0.677118
0.673475
0.670774
0.668994
0.668116
0.856466
0.82816
0.803621
0.78218
0.763343
0.74675
0.73211
0.719182
0.70777
0.697726
0.688933
0.6813
0.674757
0.669247
0.664727
0.661159
0.658515
0.656774
0.655915
0.830675
0.805424
0.782928
0.762953
0.74524
0.729531
0.715601
0.703254
0.692328
0.682691
0.674243
0.666901
0.660603
0.655298
0.650943
0.647506
0.644959
0.643282
0.642455
0.798756
0.777189
0.757481
0.739654
0.723629
0.709267
0.696425
0.684968
0.674777
0.665753
0.657817
0.650903
0.644961
0.639947
0.635829
0.632575
0.630162
0.628574
0.627791
0.7626
0.744917
0.728344
0.713044
0.699065
0.686369
0.674893
0.664564
0.655311
0.64707
0.639787
0.63342
0.62793
0.623288
0.619468
0.616446
0.614203
0.612725
0.611998
0.723653
0.709813
0.696474
0.683869
0.672127
0.66129
0.651364
0.642331
0.634165
0.626837
0.620321
0.614595
0.609639
0.605435
0.601966
0.599216
0.597173
0.595826
0.595162
0.68301
0.672849
0.662692
0.652806
0.643371
0.634487
0.626214
0.61858
0.611599
0.605275
0.599607
0.594595
0.590234
0.586519
0.583443
0.580998
0.579178
0.577977
0.577386
0.641508
0.634802
0.627691
0.620457
0.613311
0.606397
0.599813
0.593627
0.587885
0.582618
0.577851
0.573599
0.569874
0.566684
0.56403
0.561913
0.560334
0.559291
0.558778
0.599799
0.596301
0.592052
0.587345
0.582412
0.577427
0.572518
0.567782
0.563292
0.559104
0.555259
0.551791
0.548725
0.546079
0.543864
0.542091
0.540763
0.539885
0.539452
0.558418
0.557866
0.556268
0.553925
0.551087
0.547947
0.544658
0.541338
0.538082
0.534962
0.532037
0.529355
0.526952
0.524855
0.523086
0.521661
0.520589
0.519878
0.519528
0.517818
0.519939
0.520761
0.520593
0.5197
0.518291
0.516535
0.514566
0.512496
0.510411
0.508383
0.506469
0.504717
0.503162
0.501833
0.500752
0.499934
0.49939
0.499122
0.478399
0.482907
0.485897
0.487694
0.488574
0.488755
0.488418
0.487712
0.486758
0.485653
0.484479
0.483301
0.482173
0.481141
0.480238
0.479491
0.478919
0.478536
0.478348
0.440505
0.447103
0.451993
0.455521
0.457983
0.459596
0.460541
0.46099
0.461066
0.46087
0.460492
0.460003
0.459464
0.458925
0.458425
0.457995
0.457658
0.457429
0.457316
0.404522
0.41282
0.419325
0.424313
0.42816
0.431036
0.4331
0.434586
0.435592
0.436223
0.436571
0.436715
0.436719
0.436636
0.436511
0.436376
0.436256
0.43617
0.436128
0.370533
0.38021
0.388022
0.394285
0.399295
0.403294
0.406224
0.408653
0.410487
0.411852
0.412847
0.413559
0.414052
0.414384
0.414598
0.414731
0.414811
0.414857
0.41488
0.338713
0.349429
0.35826
0.365519
0.371466
0.376314
0.380201
0.383355
0.385879
0.387878
0.389428
0.390638
0.391564
0.392262
0.39278
0.393153
0.39341
0.393573
0.393658
0.30913
0.320554
0.330124
0.338132
0.344813
0.350367
0.354955
0.358739
0.361844
0.364372
0.36641
0.368043
0.36934
0.370355
0.371135
0.371718
0.372128
0.37239
0.37254
0.281769
0.293601
0.303649
0.312175
0.319391
0.32548
0.330596
0.334881
0.338454
0.341414
0.343848
0.345836
0.347445
0.348727
0.34973
0.350489
0.351033
0.35138
0.351586
0.256552
0.268528
0.278819
0.287655
0.29522
0.301679
0.307173
0.31183
0.315759
0.319055
0.321802
0.324073
0.325932
0.327433
0.328618
0.329523
0.330178
0.330598
0.330842
0.233352
0.245251
0.255582
0.264541
0.272288
0.278966
0.284702
0.28961
0.29379
0.297329
0.300308
0.302793
0.304845
0.306514
0.307843
0.308864
0.309607
0.310087
0.310355
0.212015
0.223656
0.233857
0.242779
0.250559
0.257321
0.263176
0.268224
0.272557
0.276254
0.279388
0.282022
0.284211
0.286003
0.287437
0.288545
0.289354
0.289879
0.290163
0.192375
0.203615
0.213543
0.222293
0.229979
0.236706
0.24257
0.24766
0.252056
0.255832
0.259051
0.261773
0.264048
0.265919
0.267422
0.268589
0.269443
0.269999
0.270292
0.174261
0.184989
0.19453
0.202996
0.21048
0.217069
0.222847
0.227891
0.232272
0.236054
0.239296
0.24205
0.244362
0.246271
0.247811
0.249009
0.249889
0.250463
0.250759
0.157508
0.167638
0.176704
0.184794
0.191985
0.19835
0.20396
0.208882
0.213177
0.216903
0.22011
0.222846
0.225151
0.227061
0.228607
0.229813
0.230699
0.231279
0.231573
0.141959
0.151429
0.159948
0.167588
0.174412
0.18048
0.185854
0.190588
0.194737
0.198351
0.201473
0.204146
0.206405
0.208283
0.209806
0.210998
0.211874
0.212449
0.212735
0.127467
0.136229
0.144147
0.15128
0.157677
0.16339
0.168469
0.172961
0.176912
0.180365
0.183359
0.185929
0.188108
0.189924
0.1914
0.192556
0.193409
0.193968
0.194242
0.113894
0.121915
0.129193
0.135773
0.141697
0.147006
0.151743
0.155946
0.159656
0.162908
0.165735
0.168169
0.170238
0.171965
0.173372
0.174476
0.17529
0.175825
0.176084
0.101114
0.108373
0.11498
0.120975
0.126388
0.131256
0.135612
0.13949
0.142921
0.145937
0.148566
0.150835
0.152767
0.154384
0.155703
0.156739
0.157504
0.158007
0.158246
0.0890103
0.095492
0.10141
0.106794
0.11167
0.116067
0.120012
0.123533
0.126657
0.129409
0.131813
0.133892
0.135666
0.137153
0.138368
0.139323
0.140028
0.140493
0.14071
0.0774746
0.0831727
0.0883884
0.0931449
0.0974637
0.101367
0.104878
0.108018
0.110811
0.113276
0.115434
0.117304
0.118902
0.120243
0.121339
0.122202
0.12284
0.12326
0.123453
0.0664079
0.0713207
0.0758273
0.0799459
0.0836935
0.0870876
0.0901465
0.0928882
0.0953306
0.0974911
0.0993859
0.10103
0.102437
0.103619
0.104587
0.105349
0.105912
0.106284
0.106451
0.055718
0.0598479
0.0636434
0.0671185
0.0702862
0.0731603
0.075755
0.0780847
0.0801638
0.082006
0.0836243
0.0850305
0.0862354
0.0872484
0.0880781
0.0887317
0.0892155
0.0895349
0.0896749
0.0453188
0.0486716
0.0517579
0.054588
0.0571716
0.0595193
0.0616421
0.0635511
0.0652575
0.0667717
0.0681038
0.0692626
0.0702565
0.0710927
0.0717779
0.0723179
0.0727179
0.0729825
0.0730941
0.0351294
0.0377136
0.0400957
0.0422828
0.0442821
0.0461012
0.0477483
0.0492317
0.0505594
0.0517393
0.0527785
0.0536834
0.05446
0.0551138
0.0556498
0.0560724
0.0563857
0.0565937
0.0566762
0.0250722
0.0268989
0.0285847
0.0301341
0.0315521
0.0328439
0.034015
0.035071
0.0360175
0.0368595
0.0376018
0.0382487
0.0388043
0.0392721
0.0396559
0.0399587
0.0401834
0.0403337
0.040387
0.0150765
0.016159
0.0171589
0.0180789
0.0189216
0.0196901
0.0203876
0.0210173
0.0215822
0.0220854
0.0225293
0.0229163
0.0232489
0.023529
0.0237589
0.0239405
0.0240756
0.0241678
0.0241927
0.00505264
0.00540698
0.00573458
0.00603626
0.00631291
0.00656552
0.00679511
0.00700269
0.00718921
0.00735552
0.0075024
0.00763058
0.00774075
0.00783361
0.00790987
0.00797018
0.00801504
0.00804669
0.00805181
)
;

boundaryField
{
    leftWall
    {
        type            fixedFluxPressure;
        gradient        uniform 0;
        value           nonuniform List<scalar> 
50
(
1985.07
1985.22
1985.53
1986.02
1986.72
1987.66
1988.84
1990.27
1993.14
1998.99
2007.23
2018.37
2032.85
2051.06
2073.25
2099.61
2130.22
2164.75
2202.83
2245.37
2291.68
2335.86
2381.8
2161.59
475.274
-1.10165
-1.05807
-0.991667
-0.924208
-0.859444
-0.793662
-0.729583
-0.667763
-0.60857
-0.55317
-0.501688
-0.453661
-0.408694
-0.366699
-0.327691
-0.291559
-0.257979
-0.226519
-0.196768
-0.168359
-0.140969
-0.114539
-0.0892534
-0.0646757
-0.039723
)
;
    }
    rightWall
    {
        type            fixedFluxPressure;
        gradient        uniform 0;
        value           nonuniform List<scalar> 
50
(
0.719849
0.719627
0.719137
0.718385
0.717374
0.716099
0.714561
0.712756
0.709508
0.703834
0.696874
0.688607
0.67902
0.668116
0.655915
0.642455
0.627791
0.611998
0.595162
0.577386
0.558778
0.539452
0.519528
0.499122
0.478348
0.457316
0.436128
0.41488
0.393658
0.37254
0.351586
0.330842
0.310355
0.290163
0.270292
0.250759
0.231573
0.212735
0.194242
0.176084
0.158246
0.14071
0.123453
0.106451
0.0896749
0.0730941
0.0566762
0.040387
0.0241927
0.00805181
)
;
    }
    lowerWall
    {
        type            fixedFluxPressure;
        gradient        uniform 0;
        value           nonuniform List<scalar> 
62
(
1985.07
1980.53
1965.05
1940.4
1907.41
1865.4
1813.52
1750.87
1676.38
1589.03
1486.81
1368.16
1232.67
1077.52
896.454
689.552
477.296
296.449
179.244
129.338
84.4843
78.6581
87.2878
87.2878
86.4908
79.2371
62.0759
39.7944
20.3746
10.4298
4.36376
-1.61301
0.630761
0.535455
0.739273
0.790614
0.78986
0.788204
0.785358
0.781215
0.776027
0.76442
0.738261
0.790614
0.792905
0.792497
0.789495
0.784764
0.778968
0.772582
0.765925
0.75925
0.752764
0.746622
0.740944
0.735826
0.73134
0.727542
0.724472
0.722157
0.720615
0.719849
)
;
    }
    atmosphere
    {
        type            totalPressure;
        rho             rho;
        psi             none;
        gamma           1;
        p0              uniform 0;
        value           nonuniform List<scalar> 
46
(
-0.0264394
-0.0264127
-0.0257102
-0.0246635
-0.0233039
-0.0216709
-0.0198113
-0.0177788
-0.0156328
-0.0134364
-0.0112535
-0.00914654
-0.00717312
-0.00538363
-0.00381899
-0.00250905
-0.00147198
-0.000714434
-0.000232872
-1.63019e-05
0
0
0
0
0
0
0
0
0
0
0
0
0
0
0
0
0
0
0
0
0
0
0
0
0
0
)
;
    }
    defaultFaces
    {
        type            empty;
    }
}


// ************************************************************************* //
