/*--------------------------------*- C++ -*----------------------------------*\
| =========                 |                                                 |
| \\      /  F ield         | OpenFOAM: The Open Source CFD Toolbox           |
|  \\    /   O peration     | Version:  2206                                  |
|   \\  /    A nd           | Website:  www.openfoam.com                      |
|    \\/     M anipulation  |                                                 |
\*---------------------------------------------------------------------------*/
FoamFile
{
    version     2.0;
    format      ascii;
    arch        "LSB;label=32;scalar=64";
    class       surfaceScalarField;
    location    "0.1";
    object      phi;
}
// * * * * * * * * * * * * * * * * * * * * * * * * * * * * * * * * * * * * * //

dimensions      [0 3 -1 0 0 0 0];

oriented        oriented;

internalField   nonuniform List<scalar> 
4432
(
4.7467e-06
-4.7467e-06
1.05532e-05
-5.80652e-06
1.61643e-05
-5.61113e-06
2.17838e-05
-5.61942e-06
2.75972e-05
-5.81345e-06
3.36876e-05
-6.09037e-06
4.01234e-05
-6.43582e-06
4.69669e-05
-6.8435e-06
5.43317e-05
-7.36483e-06
6.22731e-05
-7.94135e-06
7.09108e-05
-8.63772e-06
8.03478e-05
-9.43695e-06
9.08768e-05
-1.0529e-05
0.000102756
-1.18796e-05
0.000115136
-1.23793e-05
0.000125623
-1.04877e-05
0.000132501
-6.87802e-06
0.000137353
-4.85115e-06
0.000142483
-5.13084e-06
0.000143473
-9.89612e-07
0.000114657
2.88163e-05
4.97469e-05
6.49098e-05
4.97467e-05
4.76529e-06
-9.51202e-06
1.05566e-05
-1.15978e-05
1.61682e-05
-1.12228e-05
2.17881e-05
-1.12393e-05
2.75966e-05
-1.16219e-05
3.36793e-05
-1.21731e-05
4.01031e-05
-1.28596e-05
4.6938e-05
-1.36785e-05
5.42788e-05
-1.47056e-05
6.21932e-05
-1.58557e-05
7.08339e-05
-1.72785e-05
8.02654e-05
-1.88684e-05
9.05997e-05
-2.08634e-05
0.000102159
-2.34389e-05
0.000114727
-2.4947e-05
0.000127001
-2.27623e-05
0.000137284
-1.71604e-05
0.000144523
-1.20903e-05
0.000150462
-1.10706e-05
0.000156455
-6.98192e-06
0.000147612
3.76591e-05
9.74984e-05
0.000115023
0.000147245
4.76262e-06
-1.42747e-05
1.05148e-05
-1.735e-05
1.60954e-05
-1.68033e-05
2.16877e-05
-1.68317e-05
2.74645e-05
-1.73987e-05
3.35112e-05
-1.82198e-05
3.98932e-05
-1.92416e-05
4.66839e-05
-2.04692e-05
5.39676e-05
-2.19893e-05
6.18221e-05
-2.37102e-05
7.0425e-05
-2.58814e-05
7.98089e-05
-2.82524e-05
9.00047e-05
-3.10592e-05
0.000101395
-3.48287e-05
0.000114188
-3.77399e-05
0.000127985
-3.65596e-05
0.000142353
-3.15282e-05
0.000155365
-2.51021e-05
0.000157628
-1.3334e-05
0.00015118
-5.34389e-07
0.000141505
4.73348e-05
0.000104848
0.00015168
0.000252094
4.75249e-06
-1.90271e-05
1.0453e-05
-2.30505e-05
1.59871e-05
-2.23374e-05
2.1538e-05
-2.23826e-05
2.72698e-05
-2.31305e-05
3.32658e-05
-2.42158e-05
3.95897e-05
-2.55654e-05
4.6316e-05
-2.71955e-05
5.35247e-05
-2.9198e-05
6.12999e-05
-3.14853e-05
6.98272e-05
-3.44087e-05
7.91346e-05
-3.75597e-05
8.92601e-05
-4.11847e-05
0.000100658
-4.62264e-05
0.000113848
-5.09306e-05
0.000128958
-5.16692e-05
0.000144885
-4.74552e-05
0.000158093
-3.83103e-05
0.000159787
-1.50277e-05
0.000143996
1.52567e-05
0.000119511
7.18194e-05
9.19202e-05
0.000179271
0.000344014
4.73482e-06
-2.3762e-05
1.03706e-05
-2.86863e-05
1.58443e-05
-2.78111e-05
2.13405e-05
-2.78788e-05
2.70145e-05
-2.88046e-05
3.29463e-05
-3.01475e-05
3.91972e-05
-3.18163e-05
4.58435e-05
-3.38417e-05
5.296e-05
-3.63145e-05
6.06401e-05
-3.91655e-05
6.90746e-05
-4.28432e-05
7.82847e-05
-4.67697e-05
8.83471e-05
-5.12471e-05
9.98263e-05
-5.77056e-05
0.000113656
-6.476e-05
0.000130455
-6.8469e-05
0.000148225
-6.52244e-05
0.00015627
-4.63558e-05
0.00015104
-9.79754e-06
0.00013203
3.42667e-05
9.5509e-05
0.000108341
7.3284e-05
0.000201496
0.000417298
4.71164e-06
-2.84736e-05
1.0271e-05
-3.42457e-05
1.56729e-05
-3.3213e-05
2.11046e-05
-3.33105e-05
2.67124e-05
-3.44123e-05
3.25717e-05
-3.60069e-05
3.87421e-05
-3.79867e-05
4.53011e-05
-4.04008e-05
5.23197e-05
-4.33331e-05
5.98984e-05
-4.67442e-05
6.82354e-05
-5.11802e-05
7.73519e-05
-5.58862e-05
8.73386e-05
-6.12338e-05
9.88409e-05
-6.92079e-05
0.000113304
-7.9223e-05
0.000131532
-8.66968e-05
0.00014994
-8.36326e-05
0.000144576
-4.09917e-05
0.000125516
9.26182e-06
9.94052e-05
6.03781e-05
7.4525e-05
0.000133221
5.04969e-05
0.000225523
0.000467795
4.68882e-06
-3.31624e-05
1.01575e-05
-3.97143e-05
1.54779e-05
-3.85334e-05
2.08393e-05
-3.86719e-05
2.6376e-05
-3.9949e-05
3.21577e-05
-4.17886e-05
3.82427e-05
-4.40717e-05
4.47073e-05
-4.68654e-05
5.16223e-05
-5.02482e-05
5.90904e-05
-5.42123e-05
6.73041e-05
-5.93939e-05
7.62714e-05
-6.48535e-05
8.60964e-05
-7.10589e-05
9.75273e-05
-8.06388e-05
0.000112315
-9.40112e-05
0.000131049
-0.00010543
0.000140624
-9.32082e-05
0.000126051
-2.64182e-05
9.69067e-05
3.84063e-05
7.07619e-05
8.65227e-05
5.62774e-05
0.000147705
4.37681e-05
0.000238032
0.000511563
4.66677e-06
-3.78292e-05
1.00226e-05
-4.50702e-05
1.52521e-05
-4.37629e-05
2.05337e-05
-4.39534e-05
2.5988e-05
-4.54033e-05
3.16782e-05
-4.74788e-05
3.76601e-05
-5.00536e-05
4.40076e-05
-5.32129e-05
5.07863e-05
-5.70268e-05
5.81071e-05
-6.15331e-05
6.61416e-05
-6.74284e-05
7.48441e-05
-7.3556e-05
8.43555e-05
-8.05702e-05
9.5635e-05
-9.19183e-05
0.000110257
-0.000108634
0.000127686
-0.000122859
0.000129006
-9.45274e-05
0.000109415
-6.82737e-06
7.82666e-05
6.95546e-05
5.28661e-05
0.000111923
4.22192e-05
0.000158353
3.88589e-05
0.000241392
0.000550422
1.86976e-06
-1.86976e-06
4.22019e-06
-2.35023e-06
6.11851e-06
-1.89817e-06
7.38849e-06
-1.2699e-06
8.08985e-06
-7.0126e-07
8.3383e-06
-2.48411e-07
8.24797e-06
9.04205e-08
7.92125e-06
3.26759e-07
7.43598e-06
4.8523e-07
6.84341e-06
5.92561e-07
6.17809e-06
6.65317e-07
5.46391e-06
7.14169e-07
4.71734e-06
7.4654e-07
3.9497e-06
7.67599e-07
3.16865e-06
7.80981e-07
2.37935e-06
7.89226e-07
1.5853e-06
7.93991e-07
7.89465e-07
7.95781e-07
7.8934e-07
1.91278e-06
-3.78237e-06
4.48082e-06
-4.91802e-06
6.52186e-06
-3.93899e-06
7.8498e-06
-2.59773e-06
8.56296e-06
-1.41428e-06
8.81563e-06
-5.01006e-07
8.74047e-06
1.65624e-07
8.42417e-06
6.43125e-07
7.92983e-06
9.79573e-07
7.31144e-06
1.2109e-06
6.60878e-06
1.36794e-06
5.84963e-06
1.47328e-06
5.05312e-06
1.54295e-06
4.23235e-06
1.58822e-06
3.39623e-06
1.61696e-06
2.55069e-06
1.63466e-06
1.6996e-06
1.64498e-06
8.45037e-07
1.65014e-06
1.63428e-06
1.81505e-06
-5.59727e-06
4.65267e-06
-7.75546e-06
6.83071e-06
-6.11687e-06
8.15361e-06
-3.92051e-06
8.80993e-06
-2.07049e-06
8.99307e-06
-6.84023e-07
8.84723e-06
3.11572e-07
8.47088e-06
1.01954e-06
7.93645e-06
1.514e-06
7.29409e-06
1.8532e-06
6.57857e-06
2.08336e-06
5.81407e-06
2.23774e-06
5.01721e-06
2.33978e-06
4.19935e-06
2.40601e-06
3.36818e-06
2.44803e-06
2.52885e-06
2.47389e-06
1.68468e-06
2.48903e-06
8.37739e-07
2.49694e-06
2.47195e-06
1.62607e-06
-7.22321e-06
4.92767e-06
-1.10569e-05
7.33388e-06
-8.52296e-06
8.6308e-06
-5.21729e-06
9.18326e-06
-2.62284e-06
9.26354e-06
-7.64165e-07
9.03599e-06
5.39238e-07
8.59749e-06
1.45803e-06
8.01874e-06
2.0927e-06
7.34595e-06
2.52601e-06
6.61012e-06
2.81923e-06
5.83236e-06
3.01548e-06
5.02705e-06
3.14498e-06
4.20402e-06
3.22891e-06
3.36993e-06
3.28203e-06
2.52914e-06
3.3146e-06
1.68447e-06
3.33361e-06
8.37671e-07
3.34362e-06
3.30958e-06
1.25957e-06
-8.48269e-06
5.29555e-06
-1.50927e-05
8.073e-06
-1.13003e-05
9.30646e-06
-6.4506e-06
9.6893e-06
-3.00561e-06
9.62152e-06
-6.96306e-07
9.28374e-06
8.77147e-07
8.76615e-06
1.97572e-06
8.1323e-06
2.72657e-06
7.42159e-06
3.2367e-06
6.65987e-06
3.58091e-06
5.86459e-06
3.81071e-06
5.04757e-06
3.96194e-06
4.21681e-06
4.05958e-06
3.37768e-06
4.12107e-06
2.53368e-06
4.15853e-06
1.68696e-06
4.18026e-06
8.38837e-07
4.19166e-06
4.1484e-06
1.1717e-06
-9.65432e-06
5.94969e-06
-1.98705e-05
9.11704e-06
-1.44676e-05
1.0202e-05
-7.5354e-06
1.03266e-05
-3.1301e-06
1.00583e-05
-4.27956e-07
9.5803e-06
1.35529e-06
8.96651e-06
2.58957e-06
8.26676e-06
3.4263e-06
7.51106e-06
3.99234e-06
6.71873e-06
4.37319e-06
5.90275e-06
4.62667e-06
5.07185e-06
4.79281e-06
4.23191e-06
4.89945e-06
3.38681e-06
4.96609e-06
2.53898e-06
5.0063e-06
1.68986e-06
5.02935e-06
8.40155e-07
5.04133e-06
4.98855e-06
3.99613e-06
-1.36504e-05
8.29712e-06
-2.41714e-05
1.07386e-05
-1.6909e-05
1.13289e-05
-8.12559e-06
1.10791e-05
-2.88012e-06
1.05619e-05
8.93429e-08
9.91441e-06
2.00283e-06
9.19032e-06
3.31366e-06
8.41634e-06
4.20024e-06
7.61039e-06
4.79826e-06
6.784e-06
5.19958e-06
5.94498e-06
5.4657e-06
5.09862e-06
5.63913e-06
4.24843e-06
5.74955e-06
3.39668e-06
5.81777e-06
2.54465e-06
5.8583e-06
1.69293e-06
5.88108e-06
8.41543e-07
5.89271e-06
5.8301e-06
1.29375e-05
-2.65878e-05
1.41876e-05
-2.54214e-05
1.33322e-05
-1.60534e-05
1.26835e-05
-7.4768e-06
1.19142e-05
-2.11072e-06
1.11005e-05
9.03186e-07
1.02705e-05
2.83291e-06
9.42869e-06
4.15541e-06
8.57593e-06
5.05299e-06
7.71645e-06
5.65778e-06
6.85369e-06
6.06238e-06
5.99002e-06
6.32936e-06
5.12706e-06
6.50201e-06
4.26587e-06
6.61065e-06
3.407e-06
6.67662e-06
2.5505e-06
6.71483e-06
1.69606e-06
6.73556e-06
8.4296e-07
6.74581e-06
6.67306e-06
9.72942e-06
-4.75586e-05
2.0772e-05
-5.61127e-05
3.15095e-05
-5.45004e-05
4.23931e-05
-5.48371e-05
5.36325e-05
-5.66427e-05
6.53272e-05
-5.91736e-05
7.75903e-05
-6.23167e-05
9.05393e-05
-6.6162e-05
0.000104351
-7.08382e-05
0.00011918
-7.6362e-05
0.000135329
-8.35781e-05
0.000152724
-9.09505e-05
0.000172419
-0.000100266
0.000197072
-0.000116571
0.000225608
-0.00013717
0.000243481
-0.000140732
0.000218597
-6.96426e-05
0.000163377
4.83926e-05
0.000111261
0.00012167
7.40536e-05
0.000149131
5.86716e-05
0.000173735
7.65476e-05
0.000223516
0.000469523
0.000157447
9.45153e-06
-5.70101e-05
1.98642e-05
-6.65254e-05
3.00334e-05
-6.46696e-05
4.03719e-05
-6.51756e-05
5.1028e-05
-6.72989e-05
6.20738e-05
-7.02194e-05
7.35979e-05
-7.38407e-05
8.57031e-05
-7.82672e-05
9.85099e-05
-8.3645e-05
0.000112164
-9.00157e-05
0.000126868
-9.82823e-05
0.000142386
-0.000106468
0.000160176
-0.000118056
0.000182403
-0.000138797
0.000205171
-0.000159938
0.000197256
-0.000132817
0.000147797
-2.01836e-05
9.39197e-05
0.00010227
6.23332e-05
0.000153256
4.6049e-05
0.000165414
4.32612e-05
0.000176523
6.49886e-05
0.000201789
0.000372271
0.00016224
9.09743e-06
-6.61075e-05
1.88049e-05
-7.62329e-05
2.83309e-05
-7.41955e-05
3.80475e-05
-7.48922e-05
4.80347e-05
-7.7286e-05
5.83364e-05
-8.05211e-05
6.90185e-05
-8.45229e-05
8.01579e-05
-8.94065e-05
9.18269e-05
-9.5314e-05
0.00010413
-0.000102319
0.000117157
-0.000111309
0.000130576
-0.000119887
0.0001463
-0.00013378
0.000164306
-0.000156804
0.000173837
-0.000169468
0.000149687
-0.000108668
8.50499e-05
4.4453e-05
4.8935e-05
0.000138385
3.85198e-05
0.000163671
3.73376e-05
0.000166596
4.28637e-05
0.000170997
6.07953e-05
0.000183857
0.000271859
0.000161208
8.6648e-06
-7.47723e-05
1.76107e-05
-8.51788e-05
2.64423e-05
-8.30271e-05
3.54735e-05
-8.39235e-05
4.47218e-05
-8.65343e-05
5.42064e-05
-9.00057e-05
6.39714e-05
-9.42879e-05
7.40636e-05
-9.94987e-05
8.45132e-05
-0.000105764
9.53751e-05
-0.000113181
0.000106606
-0.000122539
0.000117893
-0.000131174
0.00013132
-0.000147208
0.000144875
-0.000170359
0.00014241
-0.000167004
9.45576e-05
-6.0815e-05
4.10929e-05
9.79171e-05
2.6048e-05
0.00015343
2.93337e-05
0.000160386
3.60693e-05
0.00015986
4.58461e-05
0.00016122
6.50338e-05
0.00016467
0.000195929
0.000140964
8.1622e-06
-8.29345e-05
1.63079e-05
-9.33246e-05
2.44108e-05
-9.11299e-05
3.27103e-05
-9.2223e-05
4.11705e-05
-9.49944e-05
4.97915e-05
-9.86267e-05
5.85978e-05
-0.000103094
6.76084e-05
-0.000108509
7.68187e-05
-0.000114974
8.62403e-05
-0.000122603
9.57192e-05
-0.000132018
0.000105055
-0.00014051
0.000116048
-0.000158201
0.00012472
-0.00017903
0.000107657
-0.000149941
4.70078e-05
-1.65132e-07
1.60308e-05
0.000128894
1.73124e-05
0.000152148
2.64502e-05
0.000151248
3.63391e-05
0.000149971
4.82409e-05
0.000149318
6.58879e-05
0.000147023
0.00015219
0.000109627
7.59853e-06
-9.0533e-05
1.49233e-05
-0.000100649
2.22772e-05
-9.84838e-05
2.98141e-05
-9.97598e-05
3.74564e-05
-0.000102637
4.51909e-05
-0.000106361
5.3025e-05
-0.000110928
6.09557e-05
-0.00011644
6.89534e-05
-0.000122972
7.70002e-05
-0.00013065
8.48828e-05
-0.000139901
9.26013e-05
-0.000148229
0.000101123
-0.000166723
0.000104952
-0.000182859
8.1595e-05
-0.000126584
2.05952e-05
6.08343e-05
7.54774e-06
0.000141941
1.56828e-05
0.000144013
2.55736e-05
0.000141357
3.56781e-05
0.000139867
4.72082e-05
0.000137789
6.09571e-05
0.000133274
0.000129369
8.37777e-05
6.98457e-06
-9.75176e-05
1.34834e-05
-0.000107148
2.00799e-05
-0.00010508
2.68376e-05
-0.000106518
3.36495e-05
-0.000109449
4.04938e-05
-0.000113206
4.73649e-05
-0.000117799
5.42431e-05
-0.000123318
6.1084e-05
-0.000129812
6.78522e-05
-0.000137418
7.4312e-05
-0.000146361
8.0637e-05
-0.000154554
8.69382e-05
-0.000173024
8.80435e-05
-0.000183965
5.12167e-05
-8.97572e-05
5.96208e-06
0.000106089
6.29038e-06
0.000141613
1.56811e-05
0.000134622
2.43959e-05
0.000132642
3.33912e-05
0.000130872
4.32166e-05
0.000127963
5.3569e-05
0.000122922
0.000116478
6.64603e-05
6.33357e-06
-0.000103851
1.20136e-05
-0.000112828
1.78535e-05
-0.00011092
2.38275e-05
-0.000112491
2.98104e-05
-0.000115432
3.57756e-05
-0.000119171
4.17077e-05
-0.000123731
4.75759e-05
-0.000129186
5.33289e-05
-0.000135566
5.89226e-05
-0.000143011
6.41272e-05
-0.000151565
6.92578e-05
-0.000159684
7.38708e-05
-0.000177637
7.25827e-05
-0.000182676
1.6094e-05
-3.32688e-05
-4.20762e-06
0.000126391
6.69985e-06
0.000130706
1.49485e-05
0.000126373
2.24537e-05
0.000125137
3.01618e-05
0.000123163
3.8162e-05
0.000119963
4.60904e-05
0.000114993
0.000108319
5.4249e-05
5.65878e-06
-0.00010951
1.05373e-05
-0.000117707
1.56288e-05
-0.000116012
2.08243e-05
-0.000117687
2.5991e-05
-0.000120598
3.10989e-05
-0.000124279
3.61256e-05
-0.000128758
4.10331e-05
-0.000134094
4.57689e-05
-0.000140301
5.0284e-05
-0.000147526
5.43784e-05
-0.00015566
5.84388e-05
-0.000163745
6.15586e-05
-0.000180757
5.54998e-05
-0.000176618
-6.16962e-06
2.84011e-05
-7.1298e-06
0.000127351
6.03215e-06
0.000117544
1.36414e-05
0.000118764
2.03267e-05
0.000118452
2.67767e-05
0.000116713
3.31216e-05
0.000113618
3.91542e-05
0.000108961
0.00010278
4.46934e-05
4.97244e-06
-0.000114482
9.07334e-06
-0.000121808
1.34302e-05
-0.000120369
1.78608e-05
-0.000122117
2.22317e-05
-0.000124969
2.65117e-05
-0.000128559
3.06726e-05
-0.000132919
3.46729e-05
-0.000138094
3.84606e-05
-0.000144089
4.19819e-05
-0.000151048
4.50845e-05
-0.000158762
4.80928e-05
-0.000166753
5.01488e-05
-0.000182813
3.52534e-05
-0.000161722
-8.37921e-06
7.20336e-05
-1.04673e-06
0.000120018
6.8463e-06
0.00010965
1.31825e-05
0.000112428
1.85877e-05
0.000113047
2.36131e-05
0.000111688
2.84186e-05
0.000108812
3.28866e-05
0.000104493
9.88774e-05
3.67892e-05
4.28183e-06
-0.000118764
7.63527e-06
-0.000125161
1.12764e-05
-0.00012401
1.49618e-05
-0.000125803
1.85629e-05
-0.00012857
2.20492e-05
-0.000132045
2.53889e-05
-0.000136259
2.85397e-05
-0.000141245
3.14528e-05
-0.000147002
3.40606e-05
-0.000153655
3.62603e-05
-0.000160962
3.81389e-05
-0.000168632
4.00169e-05
-0.000184691
1.56638e-05
-0.000137369
-1.87283e-06
8.95701e-05
6.14741e-06
0.000111998
9.9486e-06
0.000105849
1.371e-05
0.000108666
1.72781e-05
0.000109478
2.072e-05
0.000108246
2.40772e-05
0.000105455
2.7241e-05
0.000101329
9.61123e-05
3.0006e-05
3.60724e-06
-0.000122371
6.25227e-06
-0.000127806
9.20496e-06
-0.000126962
1.21755e-05
-0.000128773
1.50466e-05
-0.000131442
1.77866e-05
-0.000134785
2.036e-05
-0.000138832
2.27198e-05
-0.000143605
2.48205e-05
-0.000149103
2.65333e-05
-0.000155368
2.77562e-05
-0.000162185
2.82077e-05
-0.000169083
2.91819e-05
-0.000185665
4.73638e-06
-0.000112923
2.33353e-06
9.19729e-05
1.03056e-05
0.000104026
1.25507e-05
0.000103604
1.43285e-05
0.000106888
1.60705e-05
0.000107736
1.79267e-05
0.00010639
1.99485e-05
0.000103433
2.20202e-05
9.92573e-05
9.41941e-05
2.39383e-05
2.99071e-06
-0.000125362
4.96891e-06
-0.000129784
7.28591e-06
-0.000129279
9.59694e-06
-0.000131084
1.18028e-05
-0.000133647
1.38645e-05
-0.000136847
1.57371e-05
-0.000140705
1.7353e-05
-0.000145221
1.86535e-05
-0.000150403
1.93488e-05
-0.000156064
1.91975e-05
-0.000162034
1.79936e-05
-0.000167879
1.49225e-05
-0.000182594
-1.09226e-05
-8.70785e-05
2.86099e-06
7.81895e-05
1.45774e-05
9.23095e-05
1.53696e-05
0.000102812
1.49853e-05
0.000107273
1.47369e-05
0.000107985
1.4993e-05
0.000106134
1.57953e-05
0.000102631
1.69666e-05
9.80861e-05
9.29011e-05
1.82598e-05
2.41878e-06
-0.000127781
3.76825e-06
-0.000131134
5.51977e-06
-0.000131031
7.23557e-06
-0.0001328
8.83177e-06
-0.000135244
1.02613e-05
-0.000138276
1.1459e-05
-0.000141902
1.23349e-05
-0.000146097
1.28033e-05
-0.000150872
1.256e-05
-0.00015582
1.11504e-05
-0.000160624
1.029e-05
-0.000167019
2.60669e-07
-0.000172565
-1.74664e-06
-8.5071e-05
2.2591e-05
5.3852e-05
2.40758e-05
9.08245e-05
1.9894e-05
0.000106994
1.5791e-05
0.000111376
1.29852e-05
0.000110791
1.15783e-05
0.000107541
1.13125e-05
0.000102897
1.18054e-05
9.75932e-05
9.20084e-05
1.26982e-05
1.77666e-06
-0.000129558
2.52312e-06
-0.00013188
3.70347e-06
-0.000132211
4.80431e-06
-0.000133901
5.74982e-06
-0.000136189
6.49383e-06
-0.00013902
6.95219e-06
-0.000142361
7.05892e-06
-0.000146203
6.70868e-06
-0.000150522
6.55141e-06
-0.000155663
7.16737e-06
-0.00016124
1.51365e-05
-0.000174988
1.02894e-05
-0.000167718
5.18483e-05
-0.00012663
6.89223e-05
3.67781e-05
4.47087e-05
0.000115038
2.59949e-05
0.000125708
1.59282e-05
0.000121443
1.00604e-05
0.000116658
7.1222e-06
0.000110479
6.10389e-06
0.000103915
6.2481e-06
9.74491e-05
9.12355e-05
7.02111e-06
8.38556e-07
-0.000130396
8.90563e-07
-0.000131932
1.29893e-06
-0.00013262
1.57508e-06
-0.000134177
1.65328e-06
-0.000136267
1.50912e-06
-0.000138876
1.18525e-06
-0.000142037
8.2034e-07
-0.000145839
4.57744e-07
-0.000150159
3.067e-06
-0.000158272
1.32995e-05
-0.000171473
3.34012e-05
-0.00019509
5.37063e-05
-0.000188023
7.62495e-05
-0.000149173
0.000106281
6.74672e-06
6.28754e-05
0.000158443
2.89938e-05
0.000159589
1.26342e-05
0.000137802
4.43866e-06
0.000124854
8.47788e-07
0.00011407
-2.44224e-07
0.000105007
4.14102e-08
9.71635e-05
9.02191e-05
1.05791e-06
-8.19767e-07
-0.000129576
-2.21168e-06
-0.00013054
-3.22916e-06
-0.000131602
-4.35326e-06
-0.000133053
-5.71821e-06
-0.000134903
-7.19284e-06
-0.000137401
-7.92591e-06
-0.000141304
-7.29994e-06
-0.000146465
-3.31224e-06
-0.000154147
9.42032e-06
-0.000171005
3.97528e-05
-0.000201805
5.13306e-05
-0.000206667
6.71727e-05
-0.000203865
5.72275e-05
-0.000139228
8.60488e-05
-2.20746e-05
4.88965e-05
0.000195596
1.78965e-05
0.000190589
1.32536e-06
0.000154373
-5.61331e-06
0.000131792
-8.02124e-06
0.000116478
-8.09633e-06
0.000105082
-6.95586e-06
9.60231e-05
8.85145e-05
-5.25124e-06
-2.94672e-06
-0.00012663
-6.2389e-06
-0.000127249
-8.73043e-06
-0.00012911
-1.10642e-05
-0.000130719
-1.30032e-05
-0.000132964
-1.37822e-05
-0.000136623
-1.21156e-05
-0.000142971
-7.70142e-06
-0.000150879
2.41907e-06
-0.000164267
2.20362e-05
-0.000190622
4.71238e-05
-0.000226893
6.7552e-05
-0.000227096
5.47862e-05
-0.000191099
1.8182e-05
-0.000102624
-1.06864e-06
-2.82395e-06
-3.94886e-06
0.000198476
-1.56011e-05
0.000202241
-2.01351e-05
0.000158907
-2.08126e-05
0.00013247
-1.95696e-05
0.000115234
-1.73133e-05
0.000102826
-1.46118e-05
9.33215e-05
8.57054e-05
-1.18027e-05
-3.51424e-06
-0.000123115
-6.71754e-06
-0.000124046
-1.01007e-05
-0.000125728
-1.31745e-05
-0.000127645
-1.58046e-05
-0.000130334
-1.77598e-05
-0.000134667
-1.9508e-05
-0.000141222
-1.98895e-05
-0.000150498
-1.82386e-05
-0.000165918
-1.44963e-05
-0.000194365
-1.23147e-05
-0.000229074
-6.27363e-06
-0.000233138
-2.47651e-05
-0.000172608
-5.31902e-05
-7.41983e-05
-8.53574e-05
2.93432e-05
-7.84717e-05
0.00019159
-5.95555e-05
0.000183325
-4.72649e-05
0.000146617
-3.90189e-05
0.000124224
-3.26252e-05
0.000108841
-2.71962e-05
9.73968e-05
-2.24768e-05
8.8602e-05
8.15445e-05
-1.8316e-05
-4.2244e-06
-0.00011889
-7.98569e-06
-0.000120285
-1.22327e-05
-0.000121481
-1.65923e-05
-0.000123286
-2.09325e-05
-0.000125993
-2.55884e-05
-0.000130012
-3.11591e-05
-0.000135652
-3.82687e-05
-0.000143388
-4.83668e-05
-0.00015582
-6.53509e-05
-0.00017738
-9.10503e-05
-0.000203375
-0.000115669
-0.000208519
-0.00012451
-0.000163767
-0.000136543
-6.21646e-05
-0.000165215
5.80147e-05
-0.000138183
0.000164558
-9.71006e-05
0.000142242
-7.21162e-05
0.000121632
-5.61954e-05
0.000108303
-4.49706e-05
9.76157e-05
-3.6528e-05
8.89541e-05
-2.98517e-05
8.19256e-05
7.60707e-05
-2.43779e-05
-4.61164e-06
-0.000114279
-9.10894e-06
-0.000115787
-1.39377e-05
-0.000116652
-1.9035e-05
-0.000118189
-2.46434e-05
-0.000120385
-3.11892e-05
-0.000123465
-3.93113e-05
-0.00012753
-4.99095e-05
-0.000132789
-6.58423e-05
-0.000139888
-9.28911e-05
-0.000150332
-0.000132554
-0.000163712
-0.000175701
-0.000165372
-0.000211177
-0.00012829
-0.000227434
-4.59077e-05
-0.000219314
4.98952e-05
-0.000160912
0.000106155
-0.000115554
9.6885e-05
-8.76108e-05
9.36889e-05
-6.83439e-05
8.90359e-05
-5.44478e-05
8.37195e-05
-4.40729e-05
7.85791e-05
-3.60093e-05
7.38621e-05
6.96124e-05
-2.9551e-05
-5.05515e-06
-0.000109223
-1.02599e-05
-0.000110583
-1.57022e-05
-0.00011121
-2.15708e-05
-0.00011232
-2.81217e-05
-0.000113834
-3.57706e-05
-0.000115816
-4.50167e-05
-0.000118284
-5.66024e-05
-0.000121203
-7.23545e-05
-0.000124136
-9.60632e-05
-0.000126623
-0.000131758
-0.000128017
-0.000175978
-0.000121152
-0.000212811
-9.14569e-05
-0.000223017
-3.57018e-05
-0.000197495
2.43731e-05
-0.000150212
5.88725e-05
-0.000116697
6.337e-05
-9.25288e-05
6.95206e-05
-7.40759e-05
7.05829e-05
-6.00039e-05
6.96475e-05
-4.90975e-05
6.76729e-05
-4.04668e-05
6.52314e-05
6.26597e-05
-3.3514e-05
-5.35624e-06
-0.000103867
-1.0926e-05
-0.000105013
-1.67139e-05
-0.000105422
-2.30091e-05
-0.000106025
-3.00309e-05
-0.000106812
-3.81356e-05
-0.000107712
-4.77693e-05
-0.000108651
-5.9584e-05
-0.000109388
-7.44278e-05
-0.000109292
-9.34224e-05
-0.000107628
-0.000118255
-0.000103184
-0.000147742
-9.16655e-05
-0.00017197
-6.72285e-05
-0.000176852
-3.08195e-05
-0.000157494
5.01452e-06
-0.000129383
3.07613e-05
-0.000108358
4.23454e-05
-8.99483e-05
5.11109e-05
-7.4529e-05
5.51637e-05
-6.1899e-05
5.70175e-05
-5.15748e-05
5.73488e-05
-4.31167e-05
5.67735e-05
5.56921e-05
-3.6149e-05
-5.55764e-06
-9.83095e-05
-1.13005e-05
-9.92705e-05
-1.72937e-05
-9.94286e-05
-2.37453e-05
-9.95736e-05
-3.08622e-05
-9.96955e-05
-3.88989e-05
-9.96755e-05
-4.81893e-05
-9.93596e-05
-5.91601e-05
-9.84178e-05
-7.21394e-05
-9.63124e-05
-8.72296e-05
-9.25383e-05
-0.000104414
-8.59998e-05
-0.000122187
-7.38918e-05
-0.000135489
-5.39265e-05
-0.000137851
-2.84579e-05
-0.000128717
-4.12015e-06
-0.000112812
1.48567e-05
-9.83195e-05
2.78532e-05
-8.4356e-05
3.71473e-05
-7.1988e-05
4.27957e-05
-6.12325e-05
4.62621e-05
-5.20143e-05
4.81307e-05
-4.41786e-05
4.89378e-05
4.90528e-05
-3.75392e-05
-5.60522e-06
-9.27044e-05
-1.13398e-05
-9.3536e-05
-1.73543e-05
-9.34146e-05
-2.37435e-05
-9.31846e-05
-3.06881e-05
-9.27511e-05
-3.83645e-05
-9.19992e-05
-4.69757e-05
-9.07485e-05
-5.66967e-05
-8.86969e-05
-6.75868e-05
-8.54221e-05
-7.9642e-05
-8.04832e-05
-9.25351e-05
-7.31067e-05
-0.00010451
-6.19164e-05
-0.000112251
-4.61863e-05
-0.000113186
-2.75227e-05
-0.000107974
-9.3325e-06
-9.89063e-05
5.78952e-06
-8.86338e-05
1.75807e-05
-7.80314e-05
2.6545e-05
-6.81049e-05
3.28692e-05
-5.90798e-05
3.72371e-05
-5.10551e-05
4.01061e-05
-4.40147e-05
4.18973e-05
4.29251e-05
-3.78871e-05
-5.52668e-06
-8.71778e-05
-1.11626e-05
-8.79004e-05
-1.70267e-05
-8.75504e-05
-2.31979e-05
-8.70134e-05
-2.97972e-05
-8.61515e-05
-3.69377e-05
-8.48591e-05
-4.47243e-05
-8.29621e-05
-5.32004e-05
-8.02206e-05
-6.22854e-05
-7.63369e-05
-7.17971e-05
-7.09717e-05
-8.12935e-05
-6.36102e-05
-8.95988e-05
-5.36111e-05
-9.48647e-05
-4.09203e-05
-9.57489e-05
-2.66383e-05
-9.25523e-05
-1.25289e-05
-8.65977e-05
-1.64932e-07
-7.93274e-05
1.03103e-05
-7.13872e-05
1.86049e-05
-6.35052e-05
2.49873e-05
-5.60308e-05
2.97627e-05
-4.91552e-05
3.32305e-05
-4.29485e-05
3.56905e-05
3.73884e-05
-3.74118e-05
-5.32994e-06
-8.18478e-05
-1.07862e-05
-8.24437e-05
-1.63854e-05
-8.19515e-05
-2.22271e-05
-8.11721e-05
-2.83769e-05
-8.0001e-05
-3.48958e-05
-7.83403e-05
-4.18163e-05
-7.60413e-05
-4.91113e-05
-7.29255e-05
-5.66632e-05
-6.87851e-05
-6.42559e-05
-6.3379e-05
-7.14503e-05
-5.64157e-05
-7.74149e-05
-4.76463e-05
-8.11333e-05
-3.72018e-05
-8.1972e-05
-2.57995e-05
-8.0029e-05
-1.44719e-05
-7.6105e-05
-4.08886e-06
-7.07842e-05
4.98954e-06
-6.47742e-05
1.25949e-05
-5.85496e-05
1.87627e-05
-5.24282e-05
2.36413e-05
-4.66158e-05
2.74181e-05
-4.12252e-05
3.02998e-05
3.24661e-05
-3.63029e-05
-5.05183e-06
-7.67967e-05
-1.02345e-05
-7.72612e-05
-1.55031e-05
-7.66829e-05
-2.09453e-05
-7.57296e-05
-2.65945e-05
-7.43517e-05
-3.24723e-05
-7.24623e-05
-3.85691e-05
-6.99442e-05
-4.48258e-05
-6.6669e-05
-5.11134e-05
-6.24974e-05
-5.7217e-05
-5.72752e-05
-6.27777e-05
-5.08548e-05
-6.72502e-05
-4.31738e-05
-7.00476e-05
-3.44044e-05
-7.08289e-05
-2.50181e-05
-6.96556e-05
-1.56451e-05
-6.69252e-05
-6.81916e-06
-6.30513e-05
1.11571e-06
-5.84672e-05
8.01092e-06
-5.35429e-05
1.38386e-05
-4.85489e-05
1.86473e-05
-4.36749e-05
2.25441e-05
-3.90428e-05
2.56677e-05
2.81443e-05
-3.47209e-05
-4.72672e-06
-7.20695e-05
-9.55978e-06
-7.24285e-05
-1.4457e-05
-7.17855e-05
-1.94628e-05
-7.07234e-05
-2.4594e-05
-6.9221e-05
-2.98469e-05
-6.72092e-05
-3.51894e-05
-6.46016e-05
-4.05504e-05
-6.13083e-05
-4.58072e-05
-5.72404e-05
-5.07713e-05
-5.23109e-05
-5.51668e-05
-4.64594e-05
-5.86371e-05
-3.97036e-05
-6.08359e-05
-3.22056e-05
-6.15681e-05
-2.42859e-05
-6.08662e-05
-1.63469e-05
-5.89339e-05
-8.75141e-06
-5.60771e-05
-1.74094e-06
-5.25544e-05
4.48832e-06
-4.8649e-05
9.93325e-06
-4.45792e-05
1.45776e-05
-4.05103e-05
1.84752e-05
-3.65585e-05
2.1716e-05
2.43847e-05
-3.27989e-05
-4.37964e-06
-6.76893e-05
-8.82353e-06
-6.79846e-05
-1.33217e-05
-6.72873e-05
-1.78771e-05
-6.61681e-05
-2.24946e-05
-6.46038e-05
-2.7157e-05
-6.25465e-05
-3.18223e-05
-5.99364e-05
-3.64177e-05
-5.6713e-05
-4.08339e-05
-5.28242e-05
-4.4916e-05
-4.82289e-05
-4.846e-05
-4.29156e-05
-5.12303e-05
-3.69334e-05
-5.30155e-05
-3.04204e-05
-5.3699e-05
-2.36022e-05
-5.32954e-05
-1.67504e-05
-5.19251e-05
-1.01217e-05
-4.97722e-05
-3.89374e-06
-4.70511e-05
1.76739e-06
-4.39448e-05
6.82704e-06
-4.06287e-05
1.12615e-05
-3.72418e-05
1.50884e-05
-3.38882e-05
1.83625e-05
2.11382e-05
-3.06416e-05
-4.01697e-06
-6.36727e-05
-8.06401e-06
-6.39373e-05
-1.21492e-05
-6.32024e-05
-1.62555e-05
-6.20617e-05
-2.03776e-05
-6.04817e-05
-2.44918e-05
-5.84324e-05
-2.85533e-05
-5.58749e-05
-3.24941e-05
-5.27722e-05
-3.62205e-05
-4.90978e-05
-3.96099e-05
-4.48396e-05
-4.25136e-05
-4.0012e-05
-4.47736e-05
-3.46733e-05
-4.62563e-05
-2.89376e-05
-4.68883e-05
-2.29702e-05
-4.6676e-05
-1.69628e-05
-4.56976e-05
-1.11e-05
-4.40633e-05
-5.52792e-06
-4.19483e-05
-3.47448e-07
-3.94664e-05
4.34513e-06
-3.67621e-05
8.55729e-06
-3.39487e-05
1.2275e-05
-3.11151e-05
1.5529e-05
1.8352e-05
-2.83288e-05
-3.64033e-06
-6.00326e-05
-7.29625e-06
-6.02811e-05
-1.09678e-05
-5.95311e-05
-1.46368e-05
-5.83923e-05
-1.829e-05
-5.68287e-05
-2.19005e-05
-5.48222e-05
-2.54251e-05
-5.23502e-05
-2.88036e-05
-4.93938e-05
-3.19579e-05
-4.59436e-05
-3.47927e-05
-4.2005e-05
-3.71999e-05
-3.76047e-05
-3.9072e-05
-3.28012e-05
-4.03215e-05
-2.76882e-05
-4.0901e-05
-2.23908e-05
-4.08146e-05
-1.70493e-05
-4.01132e-05
-1.18014e-05
-3.88741e-05
-6.76689e-06
-3.72088e-05
-2.01267e-06
-3.52205e-05
2.35678e-06
-3.30143e-05
6.35108e-06
-3.06817e-05
9.94237e-06
-2.8297e-05
1.31444e-05
1.59746e-05
-2.59196e-05
-3.25414e-06
-5.67783e-05
-6.52664e-06
-5.70087e-05
-9.79377e-06
-5.62641e-05
-1.30435e-05
-5.51424e-05
-1.62571e-05
-5.36153e-05
-1.9407e-05
-5.16723e-05
-2.24538e-05
-4.93033e-05
-2.53455e-05
-4.6502e-05
-2.80188e-05
-4.32705e-05
-3.04001e-05
-3.96237e-05
-3.24109e-05
-3.5594e-05
-3.39765e-05
-3.12357e-05
-3.50382e-05
-2.66266e-05
-3.55652e-05
-2.18639e-05
-3.55599e-05
-1.70546e-05
-3.50561e-05
-1.23052e-05
-3.41126e-05
-7.7103e-06
-3.27912e-05
-3.3341e-06
-3.11994e-05
7.64904e-07
-2.94006e-05
4.55232e-06
-2.74712e-05
8.01305e-06
-2.5473e-05
1.11464e-05
1.39583e-05
-2.34567e-05
-2.86864e-06
-5.39096e-05
-5.76363e-06
-5.41139e-05
-8.64047e-06
-5.33872e-05
-1.14908e-05
-5.22921e-05
-1.42936e-05
-5.08126e-05
-1.70219e-05
-4.89438e-05
-1.96409e-05
-4.66843e-05
-2.21071e-05
-4.4036e-05
-2.43693e-05
-4.10084e-05
-2.63715e-05
-3.76216e-05
-2.8056e-05
-3.39095e-05
-2.93702e-05
-2.99215e-05
-3.02742e-05
-2.57227e-05
-3.07472e-05
-2.13909e-05
-3.0791e-05
-1.70106e-05
-3.04302e-05
-1.2666e-05
-2.97073e-05
-8.43321e-06
-2.86672e-05
-4.37413e-06
-2.73922e-05
-5.10031e-07
-2.59239e-05
3.08408e-06
-2.43332e-05
6.42247e-06
-2.26681e-05
9.4813e-06
1.22604e-05
-2.09701e-05
-2.49337e-06
-5.14163e-05
-5.0177e-06
-5.15895e-05
-7.51948e-06
-5.08855e-05
-9.98977e-06
-4.98217e-05
-1.24077e-05
-4.83945e-05
-1.47482e-05
-4.66033e-05
-1.69808e-05
-4.44518e-05
-1.90697e-05
-4.19473e-05
-2.09742e-05
-3.91039e-05
-2.26517e-05
-3.59442e-05
-2.40597e-05
-3.25016e-05
-2.51609e-05
-2.88204e-05
-2.59274e-05
-2.49562e-05
-2.63455e-05
-2.09728e-05
-2.64171e-05
-1.69389e-05
-2.61606e-05
-1.29224e-05
-2.56071e-05
-8.98657e-06
-2.47949e-05
-5.18622e-06
-2.37637e-05
-1.54104e-06
-2.25753e-05
1.89579e-06
-2.1273e-05
5.12028e-06
-1.98964e-05
8.10473e-06
1.08438e-05
-1.84799e-05
-2.13308e-06
-4.9283e-05
-4.29671e-06
-4.94259e-05
-6.43811e-06
-4.87441e-05
-8.54634e-06
-4.77133e-05
-1.0602e-05
-4.63387e-05
-1.25826e-05
-4.46229e-05
-1.44621e-05
-4.25724e-05
-1.62114e-05
-4.01981e-05
-1.77988e-05
-3.75165e-05
-1.91916e-05
-3.45513e-05
-2.03588e-05
-3.13344e-05
-2.12736e-05
-2.79057e-05
-2.19165e-05
-2.43132e-05
-2.22784e-05
-2.06108e-05
-2.23617e-05
-1.68555e-05
-2.218e-05
-1.3104e-05
-2.17568e-05
-9.40968e-06
-2.11227e-05
-5.82003e-06
-2.03004e-05
-2.36312e-06
-1.93457e-05
9.41195e-07
-1.829e-05
4.06458e-06
-1.71651e-05
6.9798e-06
9.67733e-06
-1.59987e-05
-1.78876e-06
-4.74941e-05
-3.60291e-06
-4.76118e-05
-5.3971e-06
-4.69498e-05
-7.15901e-06
-4.59512e-05
-8.87136e-06
-4.46263e-05
-1.05147e-05
-4.29796e-05
-1.20676e-05
-4.10195e-05
-1.35068e-05
-3.87588e-05
-1.48077e-05
-3.62155e-05
-1.59458e-05
-3.34132e-05
-1.68981e-05
-3.03821e-05
-1.76454e-05
-2.71584e-05
-1.81743e-05
-2.37842e-05
-1.84789e-05
-2.03062e-05
-1.85616e-05