/*--------------------------------*- C++ -*----------------------------------*\
| =========                 |                                                 |
| \\      /  F ield         | OpenFOAM: The Open Source CFD Toolbox           |
|  \\    /   O peration     | Version:  2206                                  |
|   \\  /    A nd           | Website:  www.openfoam.com                      |
|    \\/     M anipulation  |                                                 |
\*---------------------------------------------------------------------------*/
FoamFile
{
    version     2.0;
    format      ascii;
    arch        "LSB;label=32;scalar=64";
    class       volVectorField;
    location    "0.1";
    object      U;
}
// * * * * * * * * * * * * * * * * * * * * * * * * * * * * * * * * * * * * * //

dimensions      [0 1 -1 0 0 0 0];

internalField   nonuniform List<vector> 
2268
(
(0.0268399 -0.0128317 0)
(0.0869414 -0.0157106 0)
(0.152197 -0.0151725 0)
(0.216671 -0.0151832 0)
(0.281771 -0.0157063 0)
(0.349483 -0.0164578 0)
(0.420984 -0.0174007 0)
(0.4963 -0.0185072 0)
(0.577788 -0.0199348 0)
(0.664348 -0.021503 0)
(0.758472 -0.0233231 0)
(0.861921 -0.0254464 0)
(0.973773 -0.0286304 0)
(1.09825 -0.0327531 0)
(1.23781 -0.0340905 0)
(1.3766 -0.0274054 0)
(1.48203 -0.0157787 0)
(1.54156 -0.0115132 0)
(1.5848 -0.0132413 0)
(1.61386 0.00496074 0)
(1.52497 0.0651276 0)
(1.06596 0.174213 0)
(0.316085 0.115168 0)
(0.0268389 -0.0384377 0)
(0.0870086 -0.0469594 0)
(0.152279 -0.0454231 0)
(0.216678 -0.0454829 0)
(0.281714 -0.0470436 0)
(0.349342 -0.0492872 0)
(0.420739 -0.0520845 0)
(0.495869 -0.0554022 0)
(0.577272 -0.0596072 0)
(0.663459 -0.0642766 0)
(0.757277 -0.0699698 0)
(0.86123 -0.0765308 0)
(0.972943 -0.0852782 0)
(1.09432 -0.0960253 0)
(1.23072 -0.100198 0)
(1.37621 -0.0860599 0)
(1.51208 -0.0577074 0)
(1.61853 -0.0420921 0)
(1.68526 -0.0533809 0)
(1.75777 -0.0268842 0)
(1.83873 0.151068 0)
(1.55307 0.501821 0)
(0.852848 0.582003 0)
(0.0267404 -0.0641548 0)
(0.0867111 -0.0781265 0)
(0.15167 -0.0756432 0)
(0.215659 -0.0757611 0)
(0.280328 -0.0783324 0)
(0.347568 -0.0820497 0)
(0.418535 -0.086676 0)
(0.493131 -0.0922153 0)
(0.574031 -0.0991145 0)
(0.659494 -0.106894 0)
(0.752668 -0.116615 0)
(0.856486 -0.127367 0)
(0.967356 -0.1404 0)
(1.08642 -0.157323 0)
(1.22052 -0.168391 0)
(1.36954 -0.158624 0)
(1.528 -0.130674 0)
(1.68944 -0.0999414 0)
(1.83053 -0.0688984 0)
(1.79045 -0.0474327 0)
(1.69432 0.189872 0)
(1.57664 0.659257 0)
(1.06179 1.05758 0)
(0.0266203 -0.0898587 0)
(0.0862727 -0.109078 0)
(0.150744 -0.10568 0)
(0.214163 -0.105874 0)
(0.278319 -0.109431 0)
(0.345018 -0.114591 0)
(0.415382 -0.121012 0)
(0.489251 -0.128748 0)
(0.569406 -0.13829 0)
(0.653968 -0.149147 0)
(0.746203 -0.162955 0)
(0.849305 -0.177896 0)
(0.95938 -0.195169 0)
(1.07777 -0.218784 0)
(1.21155 -0.238858 0)
(1.36383 -0.237411 0)
(1.53722 -0.217425 0)
(1.71798 -0.185283 0)
(1.8715 -0.101724 0)
(1.83226 0.023854 0)
(1.43331 0.249167 0)
(1.32641 0.813302 0)
(1.07169 1.53005 0)
(0.0264781 -0.115436 0)
(0.0856886 -0.139652 0)
(0.149503 -0.135371 0)
(0.2122 -0.135673 0)
(0.275703 -0.140198 0)
(0.341716 -0.146767 0)
(0.411316 -0.154931 0)
(0.484287 -0.164814 0)
(0.563521 -0.176925 0)
(0.64695 -0.190806 0)
(0.738113 -0.208659 0)
(0.840269 -0.227881 0)
(0.949465 -0.249852 0)
(1.06747 -0.280637 0)
(1.20062 -0.311659 0)
(1.35722 -0.324906 0)
(1.55118 -0.312511 0)
(1.75878 -0.249257 0)
(1.85385 -0.0817577 0)
(1.68947 0.126977 0)
(1.2266 0.477644 0)
(0.94275 0.974733 0)
(1.01009 1.98114 0)
(0.0263327 -0.140826 0)
(0.0849922 -0.169739 0)
(0.14799 -0.164599 0)
(0.209854 -0.165042 0)
(0.27261 -0.170517 0)
(0.337845 -0.178452 0)
(0.406582 -0.188305 0)
(0.478574 -0.20029 0)
(0.556822 -0.214885 0)
(0.63902 -0.231777 0)
(0.729079 -0.253649 0)
(0.83026 -0.277013 0)
(0.93885 -0.303742 0)
(1.05561 -0.342707 0)
(1.18444 -0.388796 0)
(1.34292 -0.423313 0)
(1.55353 -0.40964 0)
(1.79457 -0.253896 0)
(1.65872 -0.0127674 0)
(1.28049 0.263558 0)
(0.963897 0.705193 0)
(0.521641 1.18234 0)
(0.90059 2.41248 0)
(0.0262372 -0.166295 0)
(0.0842386 -0.199608 0)
(0.146241 -0.193638 0)
(0.207201 -0.194263 0)
(0.269159 -0.200684 0)
(0.333565 -0.209962 0)
(0.401372 -0.221476 0)
(0.472335 -0.235552 0)
(0.549512 -0.252595 0)
(0.630368 -0.272538 0)
(0.719176 -0.298516 0)
(0.819034 -0.325917 0)
(0.926514 -0.356973 0)
(1.03964 -0.404289 0)
(1.15947 -0.469259 0)
(1.31873 -0.525564 0)
(1.54372 -0.49135 0)
(1.70043 -0.187338 0)
(1.3415 0.142493 0)
(0.917107 0.418264 0)
(0.752657 0.79811 0)
(0.357861 1.28896 0)
(0.781476 2.7176 0)
(0.0261848 -0.191762 0)
(0.0833776 -0.229163 0)
(0.144182 -0.222425 0)
(0.204146 -0.223294 0)
(0.265198 -0.230665 0)
(0.328634 -0.241263 0)
(0.395325 -0.254416 0)
(0.465048 -0.270545 0)
(0.540841 -0.290036 0)
(0.619926 -0.312992 0)
(0.70698 -0.343073 0)
(0.804783 -0.37455 0)
(0.909639 -0.409878 0)
(1.01518 -0.46595 0)
(1.12467 -0.549928 0)
(1.28444 -0.620068 0)
(1.51519 -0.524062 0)
(1.54177 -0.100495 0)
(1.10305 0.28498 0)
(0.695893 0.543346 0)
(0.56968 0.839348 0)
(0.282732 1.36313 0)
(0.63765 2.92644 0)
(0.0105435 -0.00542559 0)
(0.0348719 -0.00671964 0)
(0.0594218 -0.00542689 0)
(0.0776834 -0.00363468 0)
(0.0888695 -0.00200924 0)
(0.0942493 -0.000711721 0)
(0.0950043 0.000267775 0)
(0.0924722 0.000946021 0)
(0.0877699 0.00139893 0)
(0.0815774 0.0017051 0)
(0.0743719 0.00191322 0)
(0.0664819 0.00205399 0)
(0.0581337 0.00214806 0)
(0.0494836 0.00220977 0)
(0.0406388 0.00224939 0)
(0.0316717 0.00227418 0)
(0.0226314 0.00228888 0)
(0.0135608 0.00229479 0)
(0.00449113 0.00231025 0)
(0.0106156 -0.0167156 0)
(0.0366223 -0.0214553 0)
(0.0633891 -0.0172774 0)
(0.0827743 -0.0114945 0)
(0.0942921 -0.00631663 0)
(0.0996259 -0.00226683 0)
(0.100517 0.000732756 0)
(0.098228 0.00286965 0)
(0.0935266 0.00434816 0)
(0.0871144 0.00535942 0)
(0.0795335 0.00604555 0)
(0.071163 0.00650643 0)
(0.0622658 0.00681189 0)
(0.0530224 0.00701072 0)
(0.0435565 0.00713731 0)
(0.0339519 0.0072156 0)
(0.0242635 0.0072614 0)
(0.0145374 0.00728275 0)
(0.0047895 0.00720646 0)
(0.00969124 -0.027883 0)
(0.0368981 -0.037327 0)
(0.0664066 -0.0296799 0)
(0.0864684 -0.0193392 0)
(0.0974916 -0.0103946 0)
(0.1021 -0.0035858 0)
(0.102153 0.00136326 0)
(0.0990643 0.00490656 0)
(0.0937967 0.00738716 0)
(0.0870304 0.00909051 0)
(0.0792474 0.0102458 0)
(0.0707785 0.0110202 0)
(0.0618523 0.0115317 0)
(0.0526259 0.0118638 0)
(0.0432065 0.0120745 0)
(0.0336664 0.0122041 0)
(0.0240533 0.0122798 0)
(0.0144111 0.0123185 0)
(0.00474755 0.0121966 0)
(0.00738932 -0.0388627 0)
(0.0369043 -0.0554994 0)
(0.0713923 -0.0431347 0)
(0.0923836 -0.0271151 0)
(0.102411 -0.0140272 0)
(0.105765 -0.00441555 0)
(0.10475 0.00246078 0)
(0.10084 0.00732103 0)
(0.0949706 0.0106902 0)
(0.087782 0.0129945 0)
(0.0797139 0.0145554 0)
(0.071057 0.0156007 0)
(0.0620093 0.0162908 0)
(0.0527066 0.0167382 0)
(0.0432418 0.0170216 0)
(0.0336774 0.0171957 0)
(0.0240534 0.0172973 0)
(0.0144095 0.0173507 0)
(0.00474767 0.0171755 0)
(0.00187069 -0.0459369 0)
(0.0356529 -0.076319 0)
(0.078895 -0.0582483 0)
(0.100989 -0.0346006 0)
(0.109206 -0.0168671 0)
(0.110644 -0.00453233 0)
(0.108157 0.0041193 0)
(0.103182 0.0101506 0)
(0.096557 0.0142862 0)
(0.0888455 0.0171007 0)
(0.0804187 0.0190018 0)
(0.0715177 0.020272 0)
(0.0623056 0.0211089 0)
(0.0528938 0.0216501 0)
(0.0433574 0.0219917 0)
(0.0337467 0.0222005 0)
(0.024093 0.022322 0)
(0.0144304 0.0223858 0)
(0.00475455 0.0221562 0)
(0.000157119 -0.0459154 0)
(0.0368787 -0.101254 0)
(0.0897592 -0.07622 0)
(0.112832 -0.0416687 0)
(0.11797 -0.0184486 0)
(0.116649 -0.00364885 0)
(0.112265 0.00651791 0)
(0.105973 0.0135013 0)
(0.0984356 0.0182417 0)
(0.0901021 0.021453 0)
(0.0812511 0.023616 0)
(0.072062 0.0250573 0)
(0.0626559 0.0260037 0)
(0.0531148 0.0266129 0)
(0.0434934 0.026995 0)
(0.0338277 0.0272266 0)
(0.0241389 0.0273601 0)
(0.0144543 0.0274299 0)
(0.00476218 0.0271447 0)
(0.0447017 -0.0647509 0)
(0.0673881 -0.134239 0)
(0.108547 -0.0952988 0)
(0.12839 -0.0475211 0)
(0.12867 -0.0182176 0)
(0.123595 -0.00127389 0)
(0.11693 0.00986889 0)
(0.109101 0.0174734 0)
(0.100527 0.0226186 0)
(0.0914969 0.0260921 0)
(0.0821737 0.0284255 0)
(0.0726644 0.0299752 0)
(0.0630424 0.0309879 0)
(0.0533571 0.0316351 0)
(0.043641 0.0320373 0)
(0.0339146 0.0322779 0)
(0.0241877 0.0324145 0)
(0.0144794 0.0324849 0)
(0.00477011 0.0321422 0)
(0.181759 -0.138725 0)
(0.157911 -0.16069 0)
(0.144463 -0.102898 0)
(0.147681 -0.0482287 0)
(0.140947 -0.015748 0)
(0.131191 0.00251186 0)
(0.121875 0.0141676 0)
(0.112427 0.0220816 0)
(0.102757 0.0274335 0)
(0.0929839 0.0310376 0)
(0.0831575 0.0334508 0)
(0.0733065 0.0350459 0)
(0.0634533 0.0360802 0)
(0.0536133 0.0367338 0)
(0.0437958 0.0371334 0)
(0.0340046 0.0373671 0)
(0.0242376 0.0374958 0)
(0.0145049 0.03756 0)
(0.00477802 0.0371572 0)
(0.0259422 -0.230571 0)
(0.0815485 -0.273497 0)
(0.140184 -0.265594 0)
(0.198271 -0.266992 0)
(0.257486 -0.275816 0)
(0.31891 -0.288322 0)
(0.383288 -0.303858 0)
(0.450387 -0.322894 0)
(0.523207 -0.345995 0)
(0.598378 -0.373267 0)
(0.681421 -0.409 0)
(0.774743 -0.445978 0)
(0.87104 -0.489901 0)
(0.957329 -0.564401 0)
(1.05795 -0.665617 0)
(1.2106 -0.711445 0)
(1.35062 -0.450382 0)
(1.16591 0.134509 0)
(0.716378 0.536158 0)
(0.46667 0.722257 0)
(0.353674 0.912272 0)
(0.297703 1.29671 0)
(0.573649 2.96746 0)
(0.0253058 -0.282512 0)
(0.0784409 -0.331793 0)
(0.133822 -0.322393 0)
(0.188876 -0.324651 0)
(0.24511 -0.335338 0)
(0.303268 -0.350179 0)
(0.363948 -0.3686 0)
(0.426805 -0.391127 0)
(0.494889 -0.418539 0)
(0.563817 -0.450978 0)
(0.640286 -0.493254 0)
(0.726806 -0.535889 0)
(0.806489 -0.592395 0)
(0.862523 -0.693737 0)
(0.964119 -0.802657 0)
(1.11033 -0.783519 0)
(1.08736 -0.293128 0)
(0.662419 0.424497 0)
(0.373253 0.76818 0)
(0.284065 0.873172 0)
(0.208919 0.971131 0)
(0.252836 1.15971 0)
(0.54358 2.37162 0)
(0.0244775 -0.332621 0)
(0.0747247 -0.386096 0)
(0.12643 -0.375524 0)
(0.178069 -0.378759 0)
(0.230889 -0.391026 0)
(0.285292 -0.407748 0)
(0.341737 -0.428457 0)
(0.399758 -0.453756 0)
(0.462418 -0.484432 0)
(0.524144 -0.520813 0)
(0.593451 -0.567808 0)
(0.671758 -0.613384 0)
(0.72706 -0.682306 0)
(0.764405 -0.801965 0)
(0.869799 -0.891918 0)
(0.948425 -0.667502 0)
(0.742396 0.0866388 0)
(0.308251 0.67857 0)
(0.205684 0.882036 0)
(0.203515 0.918157 0)
(0.193107 0.957105 0)
(0.226989 1.04547 0)
(0.568602 1.67788 0)
(0.0234329 -0.380617 0)
(0.0704312 -0.43646 0)
(0.118165 -0.425076 0)
(0.166102 -0.429379 0)
(0.215148 -0.442963 0)
(0.265404 -0.461164 0)
(0.31721 -0.483646 0)
(0.369983 -0.511044 0)
(0.426752 -0.544089 0)
(0.480709 -0.583256 0)
(0.542945 -0.63312 0)
(0.611022 -0.679736 0)
(0.639135 -0.760754 0)
(0.675188 -0.885036 0)
(0.773019 -0.923087 0)
(0.767957 -0.500887 0)
(0.349771 0.416562 0)
(0.130343 0.815565 0)
(0.141929 0.890871 0)
(0.173986 0.890254 0)
(0.215752 0.899119 0)
(0.247959 0.93198 0)
(0.555899 1.18392 0)
(0.0221889 -0.426066 0)
(0.0656511 -0.482566 0)
(0.109216 -0.470748 0)
(0.153252 -0.476131 0)
(0.19826 -0.490728 0)
(0.244104 -0.509984 0)
(0.291025 -0.533699 0)
(0.338355 -0.562501 0)
(0.389033 -0.597005 0)
(0.435147 -0.637793 0)
(0.490963 -0.688693 0)
(0.546701 -0.734929 0)
(0.551037 -0.826011 0)
(0.596616 -0.942297 0)
(0.67057 -0.88382 0)
(0.537833 -0.174794 0)
(0.0743538 0.640079 0)
(0.0713955 0.840263 0)
(0.119348 0.845115 0)
(0.165204 0.836279 0)
(0.228279 0.83456 0)
(0.277134 0.832007 0)
(0.480588 0.901638 0)
(0.0207695 -0.46862 0)
(0.0604817 -0.524274 0)
(0.0997652 -0.512418 0)
(0.139775 -0.518835 0)
(0.180572 -0.534142 0)
(0.221856 -0.554065 0)
(0.263789 -0.578529 0)
(0.305651 -0.608116 0)
(0.350244 -0.6433 0)
(0.388841 -0.684737 0)
(0.439041 -0.735256 0)
(0.480949 -0.780604 0)
(0.470543 -0.878558 0)
(0.525379 -0.976982 0)
(0.566597 -0.743432 0)
(0.335141 0.186816 0)
(-0.017149 0.750763 0)
(0.0646553 0.803494 0)
(0.111672 0.788262 0)
(0.161657 0.780549 0)
(0.223176 0.772834 0)
(0.279729 0.752162 0)
(0.394642 0.746076 0)
(0.0192068 -0.507998 0)
(0.0550275 -0.561542 0)
(0.0899894 -0.550032 0)
(0.125916 -0.557386 0)
(0.162413 -0.573116 0)
(0.199087 -0.593362 0)
(0.236041 -0.618149 0)
(0.272538 -0.647992 0)
(0.311197 -0.683222 0)
(0.342835 -0.72455 0)
(0.388026 -0.773718 0)
(0.4156 -0.818216 0)
(0.400517 -0.918058 0)
(0.457049 -0.990471 0)
(0.465364 -0.608292 0)
(0.115278 0.502036 0)
(0.00370499 0.777834 0)
(0.0634222 0.751563 0)
(0.10594 0.737503 0)
(0.154056 0.729071 0)
(0.205836 0.715215 0)
(0.257416 0.687983 0)
(0.325515 0.655826 0)
(0.017531 -0.54395 0)
(0.0493877 -0.594358 0)
(0.0800521 -0.583551 0)
(0.111891 -0.591705 0)
(0.144067 -0.607594 0)
(0.176162 -0.627865 0)
(0.208227 -0.652613 0)
(0.239544 -0.682276 0)
(0.272498 -0.717062 0)
(0.297836 -0.757724 0)
(0.338373 -0.804948 0)
(0.35204 -0.848866 0)
(0.339456 -0.947046 0)
(0.391541 -0.991095 0)
(0.340717 -0.393215 0)
(-0.104499 0.651395 0)
(0.0456863 0.739931 0)
(0.051131 0.7028 0)
(0.0985379 0.694144 0)
(0.141526 0.683839 0)
(0.183616 0.666621 0)
(0.226036 0.638944 0)
(0.271564 0.602227 0)
(0.015776 -0.576209 0)
(0.0436597 -0.622693 0)
(0.0701008 -0.612904 0)
(0.097888 -0.6217 0)
(0.125782 -0.637522 0)
(0.153388 -0.657572 0)
(0.180713 -0.681994 0)
(0.207076 -0.711138 0)
(0.234588 -0.745123 0)
(0.254291 -0.784731 0)
(0.290256 -0.829729 0)
(0.291196 -0.873429 0)
(0.285401 -0.967219 0)
(0.327937 -0.973585 0)
(0.191289 0.000701818 0)
(-0.177616 0.694085 0)
(0.0556999 0.668796 0)
(0.0420951 0.659548 0)
(0.0908919 0.655908 0)
(0.127156 0.645582 0)
(0.161122 0.628226 0)
(0.194454 0.602155 0)
(0.226818 0.567368 0)
(0.0139724 -0.604877 0)
(0.0379256 -0.64688 0)
(0.0602554 -0.638381 0)
(0.0840606 -0.647663 0)
(0.107759 -0.663246 0)
(0.131004 -0.682894 0)
(0.153775 -0.706786 0)
(0.175436 -0.735182 0)
(0.197794 -0.768133 0)
(0.212478 -0.806421 0)
(0.243782 -0.849109 0)
(0.233709 -0.892561 0)
(0.236303 -0.979565 0)
(0.267295 -0.920557 0)
(0.0740011 0.363567 0)
(-0.092232 0.67151 0)
(0.0481919 0.609303 0)
(0.0485975 0.621895 0)
(0.0858432 0.623111 0)
(0.113909 0.614662 0)
(0.140081 0.598508 0)
(0.165149 0.574349 0)
(0.18837 0.542642 0)
(0.0121377 -0.630343 0)
(0.0322454 -0.667417 0)
(0.0506052 -0.660407 0)
(0.0705179 -0.669999 0)
(0.0901464 -0.685182 0)
(0.109192 -0.704258 0)
(0.127615 -0.727414 0)
(0.144847 -0.754848 0)
(0.162377 -0.786559 0)
(0.172656 -0.823297 0)
(0.199162 -0.863711 0)
(0.179869 -0.906237 0)
(0.189591 -0.98826 0)
(0.207869 -0.815272 0)
(-0.0157542 0.445299 0)
(0.0172897 0.62633 0)
(0.0464647 0.579302 0)
(0.0608389 0.594933 0)
(0.0840212 0.598906 0)
(0.102444 0.591932 0)
(0.120627 0.576699 0)
(0.138297 0.554028 0)
(0.15463 0.524982 0)
(0.0103346 -0.651269 0)
(0.0267759 -0.683115 0)
(0.0413261 -0.67767 0)
(0.0574755 -0.687382 0)
(0.0732362 -0.702001 0)
(0.0883249 -0.720333 0)
(0.102677 -0.742545 0)
(0.115791 -0.768807 0)
(0.128802 -0.79911 0)
(0.135223 -0.834055 0)
(0.156147 -0.872363 0)
(0.128507 -0.912829 0)
(0.141021 -0.998979 0)
(0.137152 -0.690184 0)
(-0.0552376 0.488777 0)
(0.0748137 0.584577 0)
(0.0520406 0.564967 0)
(0.0717855 0.580375 0)
(0.0828211 0.584684 0)
(0.0915198 0.57776 0)
(0.101929 0.562374 0)
(0.113057 0.540151 0)
(0.123991 0.512629 0)
(0.00864314 -0.666795 0)
(0.0217521 -0.693511 0)
(0.0327308 -0.68979 0)
(0.0453784 -0.699593 0)
(0.0576095 -0.71373 0)
(0.0691039 -0.731424 0)
(0.0797596 -0.752837 0)
(0.0890848 -0.778063 0)
(0.0977541 -0.807133 0)
(0.100478 -0.839933 0)
(0.113514 -0.875575 0)
(0.0777668 -0.91115 0)
(0.0906028 -1.00451 0)
(0.0446977 -0.592578 0)
(-0.107987 0.48139 0)
(0.117546 0.5317 0)
(0.0674026 0.556965 0)
(0.0826917 0.576513 0)
(0.081242 0.580411 0)
(0.0798912 0.57198 0)
(0.082709 0.554846 0)
(0.0881191 0.531586 0)
(0.094864 0.504176 0)
(0.00698787 -0.684251 0)
(0.0170466 -0.70562 0)
(0.0247742 -0.704022 0)
(0.0343048 -0.713902 0)
(0.0432995 -0.727692 0)
(0.0514788 -0.744862 0)
(0.0586524 -0.765527 0)
(0.0642501 -0.789557 0)
(0.0685512 -0.817063 0)
(0.0673414 -0.846166 0)
(0.0720118 -0.875855 0)
(0.0348152 -0.902614 0)
(0.0685844 -0.973564 0)
(-0.0363479 -0.299037 0)
(0.00154625 0.380111 0)
(0.182827 0.491653 0)
(0.112974 0.562778 0)
(0.0964242 0.587216 0)
(0.0780679 0.588029 0)
(0.0656519 0.574851 0)
(0.0611687 0.553406 0)
(0.0619205 0.527216 0)
(0.0657609 0.498433 0)
(0.0051993 -0.701271 0)
(0.0119789 -0.716323 0)
(0.016544 -0.716772 0)
(0.0229766 -0.725886 0)
(0.0284876 -0.738299 0)
(0.0331192 -0.7536 0)
(0.036522 -0.771636 0)
(0.0379018 -0.792157 0)
(0.0380045 -0.815155 0)
(0.0330614 -0.83765 0)
(0.0398217 -0.858081 0)
(0.029904 -0.892896 0)
(0.130766 -0.908451 0)
(0.0766854 -0.611364 0)
(0.303528 0.29607 0)
(0.341723 0.548777 0)
(0.185814 0.614522 0)
(0.108944 0.622836 0)
(0.06848 0.610831 0)
(0.044878 0.586552 0)
(0.0346262 0.557023 0)
(0.0326323 0.525689 0)
(0.0352935 0.494118 0)
(0.00285733 -0.689872 0)
(0.00482507 -0.699279 0)
(0.00579738 -0.701539 0)
(0.00789735 -0.709461 0)
(0.00886646 -0.720121 0)
(0.00871281 -0.733231 0)
(0.00745187 -0.748488 0)
(0.00494835 -0.766193 0)
(0.00367503 -0.78572 0)
(0.000826308 -0.812144 0)
(0.0359464 -0.843971 0)
(0.10572 -0.946116 0)
(0.230904 -0.89618 0)
(0.385126 -0.786456 0)
(0.461562 0.190526 0)
(0.503776 0.737091 0)
(0.238912 0.755436 0)
(0.0948677 0.69236 0)
(0.0410455 0.648632 0)
(0.0113083 0.604622 0)
(-0.000248765 0.563173 0)
(-0.00157452 0.524893 0)
(0.00235226 0.489558 0)
(-0.000259508 -0.679932 0)
(-0.00893846 -0.686102 0)
(-0.0144323 -0.691516 0)
(-0.0203171 -0.700335 0)
(-0.026457 -0.712267 0)
(-0.0349707 -0.727636 0)
(-0.0423276 -0.747546 0)
(-0.0428602 -0.772682 0)
(-0.0345478 -0.803642 0)
(-0.00382411 -0.878089 0)
(0.10602 -1.01356 0)
(0.278495 -1.14436 0)
(0.323479 -1.08208 0)
(0.37663 -0.801306 0)
(0.354322 -0.210227 0)
(0.423669 0.92798 0)
(0.170254 0.94072 0)
(0.0206823 0.786027 0)
(-0.0182721 0.691417 0)
(-0.0413849 0.622042 0)
(-0.0457474 0.567161 0)
(-0.0416735 0.52162 0)
(-0.0335265 0.482601 0)
(-0.00228197 -0.724062 0)
(-0.027586 -0.728547 0)
(-0.0405781 -0.736194 0)
(-0.0538835 -0.744779 0)
(-0.0634209 -0.755971 0)
(-0.0736219 -0.772258 0)
(-0.0743506 -0.800116 0)
(-0.0548905 -0.836982 0)
(-0.0226329 -0.894239 0)
(0.0564774 -1.00854 0)
(0.172986 -1.20187 0)
(0.305076 -1.17637 0)
(0.469468 -1.15231 0)
(0.0645427 -0.674175 0)
(0.122724 -0.083322 0)
(-0.000457378 1.02327 0)
(-0.0843598 1.07071 0)
(-0.121382 0.850778 0)
(-0.115828 0.716526 0)
(-0.113801 0.627405 0)
(-0.101418 0.562495 0)
(-0.0869116 0.511958 0)
(-0.0715687 0.470842 0)
(-0.00762961 -0.688505 0)
(-0.0285471 -0.691885 0)
(-0.0447141 -0.702088 0)
(-0.0633129 -0.712029 0)
(-0.0773765 -0.725633 0)
(-0.0900053 -0.746895 0)
(-0.100453 -0.783097 0)
(-0.106685 -0.831984 0)
(-0.0987443 -0.914704 0)
(-0.077318 -1.07168 0)
(-0.0721586 -1.27345 0)
(-0.0782707 -1.28972 0)
(0.010509 -1.02091 0)
(-0.366241 -0.479711 0)
(-0.154184 0.0862541 0)
(-0.558691 1.10923 0)
(-0.382283 1.07137 0)
(-0.300413 0.840282 0)
(-0.235141 0.70073 0)
(-0.196221 0.609126 0)
(-0.161981 0.542959 0)
(-0.134076 0.492557 0)
(-0.109793 0.452364 0)
(-0.011329 -0.652822 0)
(-0.0326879 -0.658923 0)
(-0.054139 -0.666995 0)
(-0.0768792 -0.6772 0)
(-0.100161 -0.692509 0)
(-0.123838 -0.715647 0)
(-0.15054 -0.74903 0)
(-0.181653 -0.796648 0)
(-0.222118 -0.87713 0)
(-0.282441 -1.01836 0)
(-0.393891 -1.18072 0)
(-0.576843 -1.20053 0)
(-0.735658 -0.896623 0)
(-0.697933 -0.332259 0)
(-0.661023 0.301398 0)
(-0.955736 1.03369 0)
(-0.595593 0.914928 0)
(-0.45651 0.741507 0)
(-0.343626 0.636895 0)
(-0.272092 0.562551 0)
(-0.218716 0.50602 0)
(-0.178099 0.462059 0)
(-0.145287 0.426484 0)
(-0.0120836 -0.6246 0)
(-0.0366479 -0.633013 0)
(-0.0617896 -0.63849 0)
(-0.0876411 -0.647748 0)
(-0.116236 -0.661389 0)
(-0.14831 -0.681016 0)
(-0.186049 -0.70775 0)
(-0.234766 -0.743602 0)
(-0.300837 -0.795593 0)
(-0.397303 -0.880283 0)
(-0.575733 -0.989528 0)
(-0.848649 -0.999944 0)
(-1.09818 -0.750733 0)
(-1.21876 -0.248636 0)
(-1.19587 0.362423 0)
(-1.05032 0.770831 0)
(-0.700387 0.657929 0)
(-0.544231 0.590225 0)
(-0.41375 0.53921 0)
(-0.327346 0.493544 0)
(-0.26308 0.45467 0)
(-0.214017 0.422 0)
(-0.175126 0.394127 0)
(-0.0132216 -0.606498 0)
(-0.0409909 -0.614641 0)
(-0.0692257 -0.618433 0)
(-0.0992814 -0.625705 0)
(-0.132325 -0.635736 0)
(-0.169747 -0.649277 0)
(-0.214013 -0.666713 0)
(-0.269628 -0.688088 0)
(-0.339698 -0.712203 0)
(-0.431947 -0.741549 0)
(-0.586862 -0.777944 0)
(-0.834116 -0.76705 0)
(-1.09055 -0.590022 0)
(-1.21229 -0.216598 0)
(-1.14705 0.191748 0)
(-0.932486 0.423147 0)
(-0.69221 0.419025 0)
(-0.5586 0.43885 0)
(-0.440953 0.431923 0)
(-0.35671 0.415279 0)
(-0.290737 0.395856 0)
(-0.23893 0.376215 0)
(-0.197341 0.357535 0)
(-0.014505 -0.573152 0)
(-0.0434201 -0.579794 0)
(-0.0735414 -0.58256 0)
(-0.106013 -0.587157 0)
(-0.141332 -0.593324 0)
(-0.181326 -0.600977 0)
(-0.228301 -0.609992 0)
(-0.285567 -0.619528 0)
(-0.355111 -0.626324 0)
(-0.440382 -0.625345 0)
(-0.558303 -0.608866 0)
(-0.719987 -0.555048 0)
(-0.883803 -0.426341 0)
(-0.962517 -0.206371 0)
(-0.909392 0.0386534 0)
(-0.767745 0.1999 0)
(-0.630316 0.265411 0)
(-0.529976 0.317495 0)
(-0.437104 0.335916 0)
(-0.363517 0.340596 0)
(-0.302515 0.337068 0)
(-0.252612 0.329244 0)
(-0.211412 0.319478 0)
(-0.0147376 -0.546121 0)
(-0.0448937 -0.551404 0)
(-0.0763098 -0.553136 0)
(-0.10961 -0.555115 0)
(-0.145676 -0.557452 0)
(-0.185954 -0.559629 0)
(-0.232146 -0.560936 0)
(-0.286125 -0.559607 0)
(-0.349356 -0.552713 0)
(-0.42355 -0.53759 0)
(-0.512591 -0.507364 0)
(-0.613654 -0.441814 0)
(-0.704162 -0.321931 0)
(-0.747459 -0.160958 0)
(-0.722443 -0.00559911 0)
(-0.64814 0.10522 0)
(-0.565135 0.178134 0)
(-0.489026 0.230669 0)
(-0.41744 0.259989 0)
(-0.355795 0.276397 0)
(-0.302408 0.283452 0)
(-0.256874 0.284667 0)
(-0.218102 0.282361 0)
(-0.0145456 -0.514939 0)
(-0.0451579 -0.519747 0)
(-0.0768223 -0.519893 0)
(-0.109826 -0.519581 0)
(-0.145365 -0.518552 0)
(-0.184392 -0.516199 0)
(-0.22802 -0.511605 0)
(-0.276968 -0.503064 0)
(-0.331761 -0.487869 0)
(-0.393318 -0.463043 0)
(-0.462611 -0.424132 0)
(-0.533611 -0.362882 0)
(-0.589161 -0.272095 0)
(-0.612009 -0.157724 0)
(-0.598008 -0.0425855 0)
(-0.556868 0.0507215 0)
(-0.503433 0.118004 0)
(-0.446652 0.167645 0)
(-0.391131 0.201082 0)
(-0.340243 0.223228 0)
(-0.294548 0.236762 0)
(-0.254167 0.244282 0)
(-0.218801 0.247689 0)
(-0.0144981 -0.484653 0)
(-0.0446175 -0.489145 0)
(-0.0754944 -0.487808 0)
(-0.10759 -0.485681 0)
(-0.141684 -0.482079 0)
(-0.178452 -0.476396 0)
(-0.218526 -0.467647 0)
(-0.262073 -0.454413 0)
(-0.309131 -0.434814 0)
(-0.359459 -0.406704 0)
(-0.411898 -0.366647 0)
(-0.461817 -0.309784 0)
(-0.499652 -0.234885 0)
(-0.515874 -0.148975 0)
(-0.508317 -0.063815 0)
(-0.482425 0.0111896 0)
(-0.445997 0.0718225 0)
(-0.404443 0.119019 0)
(-0.361554 0.153922 0)
(-0.320168 0.179122 0)
(-0.28163 0.196678 0)
(-0.246479 0.20851 0)
(-0.214877 0.216131 0)
(-0.0143233 -0.455664 0)
(-0.0431993 -0.459329 0)
(-0.0726791 -0.456922 0)
(-0.103393 -0.453272 0)
(-0.135446 -0.447695 0)
(-0.169393 -0.439607 0)
(-0.205518 -0.428112 0)
(-0.243685 -0.412097 0)
(-0.283619 -0.390206 0)
(-0.324707 -0.360892 0)
(-0.365305 -0.322249 0)
(-0.401728 -0.272273 0)
(-0.428404 -0.211071 0)
(-0.440503 -0.143037 0)
(-0.436876 -0.0753786 0)
(-0.420396 -0.0139151 0)
(-0.394941 0.038562 0)
(-0.364053 0.0819273 0)
(-0.330867 0.116251 0)
(-0.297529 0.142694 0)
(-0.265421 0.162574 0)
(-0.235263 0.177258 0)
(-0.207467 0.187897 0)
(-0.013711 -0.427996 0)
(-0.0409795 -0.43071 0)
(-0.0688071 -0.427716 0)
(-0.0976927 -0.42294 0)
(-0.127383 -0.415975 0)
(-0.158287 -0.406297 0)
(-0.190488 -0.393177 0)
(-0.223719 -0.375794 0)
(-0.257529 -0.353236 0)
(-0.291132 -0.324477 0)
(-0.322994 -0.28845 0)
(-0.350523 -0.24448 0)
(-0.370399 -0.193385 0)
(-0.379946 -0.138103 0)
(-0.378525 -0.0828291 0)
(-0.367626 -0.0312409 0)
(-0.349512 0.014696 0)
(-0.326463 0.0539704 0)
(-0.300684 0.0865643 0)
(-0.273888 0.112947 0)
(-0.24731 0.133881 0)
(-0.221688 0.150285 0)
(-0.197524 0.162979 0)
(-0.0127155 -0.40151 0)
(-0.0382459 -0.403543 0)
(-0.0642712 -0.400215 0)
(-0.0909771 -0.394724 0)
(-0.118157 -0.386888 0)
(-0.146005 -0.376288 0)
(-0.174495 -0.362376 0)
(-0.203314 -0.344568 0)
(-0.231953 -0.322268 0)
(-0.259635 -0.294867 0)
(-0.285097 -0.261879 0)
(-0.306545 -0.223237 0)
(-0.321964 -0.179814 0)
(-0.329814 -0.133619 0)
(-0.329669 -0.0872971 0)
(-0.322339 -0.0432305 0)
(-0.309263 -0.00296564 0)
(-0.291885 0.0325644 0)
(-0.271762 0.0630894 0)
(-0.250217 0.0887309 0)
(-0.228287 0.109905 0)
(-0.206652 0.127216 0)
(-0.185825 0.141222 0)
(-0.0115995 -0.376627 0)
(-0.0353087 -0.378315 0)
(-0.0593733 -0.374722 0)
(-0.0837165 -0.368833 0)
(-0.108339 -0.36053 0)
(-0.133236 -0.349509 0)
(-0.158313 -0.335389 0)
(-0.183253 -0.317772 0)
(-0.207561 -0.296291 0)
(-0.230545 -0.270631 0)
(-0.251227 -0.240633 0)
(-0.268371 -0.206499 0)
(-0.280712 -0.169012 0)
(-0.287333 -0.129571 0)
(-0.287961 -0.0899265 0)
(-0.283024 -0.0517317 0)
(-0.273417 -0.0161681 0)
(-0.260173 0.0160234 0)
(-0.244394 0.0444263 0)
(-0.227049 0.0689993 0)
(-0.208986 0.0899304 0)
(-0.190799 0.1076 0)
(-0.172963 0.122378 0)
(-0.0105567 -0.353814 0)
(-0.0323302 -0.355353 0)
(-0.0542793 -0.351521 0)
(-0.0762428 -0.345438 0)
(-0.0983391 -0.336945 0)
(-0.120448 -0.325846 0)
(-0.142426 -0.31189 0)
(-0.163973 -0.29482 0)
(-0.184648 -0.274436 0)
(-0.203869 -0.25061 0)
(-0.220896 -0.223366 0)
(-0.234875 -0.193 0)
(-0.244988 -0.160172 0)
(-0.250663 -0.125899 0)
(-0.251722 -0.0913886 0)
(-0.248399 -0.0578071 0)
(-0.241277 -0.0260798 0)
(-0.231128 0.00315837 0)
(-0.218674 0.0295396 0)
(-0.204678 0.0529132 0)
(-0.189812 0.0733234 0)
(-0.174573 0.0909967 0)
(-0.159383 0.106163 0)
(-0.00961678 -0.333248 0)
(-0.0293361 -0.334691 0)
(-0.0490748 -0.330692 0)
(-0.0687415 -0.324542 0)
(-0.0884023 -0.31605 0)
(-0.10791 -0.305096 0)
(-0.127092 -0.291523 0)
(-0.145675 -0.275187 0)
(-0.163282 -0.255998 0)
(-0.179443 -0.233945 0)
(-0.193602 -0.209146 0)
(-0.205162 -0.181914 0)
(-0.213581 -0.152799 0)
(-0.21849 -0.122559 0)
(-0.21977 -0.0920672 0)
(-0.21757 -0.0621779 0)
(-0.212284 -0.0336287 0)
(-0.20444 -0.00693154 0)
(-0.194541 0.0176226 0)
(-0.183229 0.0397909 0)
(-0.171004 0.0595423 0)
(-0.158276 0.0769982 0)
(-0.145404 0.0922904 0)
(-0.00871934 -0.31485 0)
(-0.026315 -0.316177 0)
(-0.0438346 -0.312124 0)
(-0.0613183 -0.306004 0)
(-0.0786696 -0.297647 0)
(-0.0957672 -0.286977 0)
(-0.112427 -0.273913 0)
(-0.128409 -0.25839 0)
(-0.1434 -0.240393 0)
(-0.157028 -0.219978 0)
(-0.168876 -0.197309 0)
(-0.178522 -0.172686 0)
(-0.1856 -0.146563 0)
(-0.189862 -0.119526 0)
(-0.191233 -0.0922292 0)
(-0.189817 -0.0653226 0)
(-0.185868 -0.0393868 0)
(-0.17975 -0.0148376 0)
(-0.171884 0.00806661 0)
(-0.162732 0.0290848 0)
(-0.152695 0.0481289 0)
(-0.142101 0.0652431 0)
(-0.13125 0.08049 0)
(-0.00780431 -0.298481 0)
(-0.0232816 -0.299652 0)
(-0.0386487 -0.29565 0)
(-0.0540525 -0.289639 0)
(-0.069228 -0.281505 0)
(-0.0840927 -0.271207 0)
(-0.0984704 -0.258715 0)
(-0.112153 -0.24402 0)
(-0.124884 -0.227157 0)
(-0.136373 -0.208219 0)
(-0.146308 -0.187387 0)
(-0.154387 -0.164937 0)
(-0.160357 -0.141249 0)
(-0.164051 -0.116786 0)
(-0.165418 -0.0920567 0)
(-0.164534 -0.0675679 0)
(-0.161577 -0.0437788 0)
(-0.156816 -0.0210585 0)
(-0.15059 0.000357891 0)
(-0.14317 0.0203483 0)
(-0.134941 0.0387015 0)
(-0.126162 0.0554183 0)
(-0.117074 0.0705159 0)
(-0.00685509 -0.284048 0)
(-0.0202816 -0.28504 0)
(-0.0336025 -0.281151 0)
(-0.0470086 -0.275302 0)
(-0.0601327 -0.267442 0)
(-0.0729219 -0.257559 0)
(-0.0852179 -0.245658 0)
(-0.096843 -0.231765 0)
(-0.107591 -0.215946 0)
(-0.117235 -0.198316 0)
(-0.125544 -0.179056 0)
(-0.132299 -0.158417 0)
(-0.137322 -0.136719 0)
(-0.140499 -0.11434 0)
(-0.1418 -0.0916874 0)
(-0.14128 -0.0691674 0)
(-0.139073 -0.0471568 0)
(-0.135385 -0.0259807 0)
(-0.130442 -0.00583509 0)
(-0.124435 0.0132376 0)
(-0.117735 0.0309512 0)
(-0.110516 0.0472594 0)
(-0.102971 0.0621526 0)
(-0.00588923 -0.271534 0)
(-0.0173627 -0.272352 0)
(-0.028748 -0.268594 0)
(-0.0402249 -0.262929 0)
(-0.0514065 -0.255361 0)
(-0.0622546 -0.245897 0)
(-0.0726328 -0.234565 0)
(-0.0823927 -0.221414 0)
(-0.0913697 -0.206528 0)
(-0.0993897 -0.190032 0)
(-0.106279 -0.1721 0)
(-0.111881 -0.152961 0)
(-0.116068 -0.132888 0)
(-0.118763 -0.112197 0)
(-0.119949 -0.0912218 0)
(-0.119669 -0.0702967 0)
(-0.118026 -0.0497357 0)
(-0.115168 -0.0298195 0)
(-0.111265 -0.010729 0)
(-0.106472 0.00749223 0)
(-0.101055 0.024631 0)
(-0.0951822 0.0405478 0)
(-0.0889953 0.0552159 0)
(-0.00493092 -0.2609 0)
(-0.0145488 -0.261573 0)
(-0.0240931 -0.257941 0)
(-0.0337011 -0.252462 0)
(-0.0430323 -0.24518 0)
(-0.0520507 -0.236114 0)
(-0.060643 -0.225304 0)
(-0.0686886 -0.212814 0)
(-0.0760583 -0.198738 0)
(-0.0826191 -0.183204 0)
(-0.0882422 -0.166378 0)
(-0.0928128 -0.148465 0)
(-0.0962424 -0.129707 0)
(-0.0984787 -0.110371 0)
(-0.0995123 -0.0907403 0)
(-0.0993788 -0.0710961 0)
(-0.0981562 -0.0517062 0)
(-0.0959575 -0.0328124 0)
(-0.0929186 -0.0145941 0)
(-0.0891669 0.00289341 0)
(-0.0848463 0.0195393 0)
(-0.0801492 0.0351055 0)
(-0.0751706 0.0495531 0)
(-0.00399606 -0.251921 0)
(-0.0118384 -0.252488 0)
(-0.0196179 -0.248969 0)
(-0.0274143 -0.243675 0)
(-0.0349728 -0.236666 0)
(-0.0422528 -0.227969 0)
(-0.0491644 -0.217633 0)
(-0.0556125 -0.205728 0)
(-0.0614982 -0.192352 0)
(-0.0667216 -0.177631 0)
(-0.0711884 -0.161722 0)
(-0.0748164 -0.14481 0)
(-0.0775442 -0.12711 0)
(-0.0793373 -0.108856 0)
(-0.080192 -0.0902923 0)
(-0.0801379 -0.0716624 0)
(-0.0792351 -0.0532009 0)
(-0.0775688 -0.0351247 0)
(-0.0752473 -0.0176162 0)
(-0.0723891 -0.00074478 0)
(-0.0690377 0.0155183 0)
(-0.0653845 0.0307929 0)
(-0.0614984 0.0450415 0)
(-0.00308186 -0.244709 0)
(-0.00920837 -0.245204 0)
(-0.0152987 -0.241765 0)
(-0.0213486 -0.236627 0)
(-0.0272086 -0.229846 0)
(-0.0328321 -0.221455 0)
(-0.0381516 -0.211508 0)
(-0.0430954 -0.200081 0)
(-0.0475901 -0.187272 0)
(-0.0515632 -0.173204 0)
(-0.0549483 -0.158024 0)
(-0.0576892 -0.141904 0)
(-0.0597457 -0.125037 0)
(-0.061097 -0.107629 0)
(-0.0617443 -0.0898959 0)
(-0.0617125 -0.0720533 0)
(-0.0610494 -0.0543091 0)
(-0.0598235 -0.0368586 0)
(-0.0581209 -0.0198803 0)
(-0.0560118 -0.00347403 0)
(-0.0535246 0.0124681 0)
(-0.0508394 0.0275109 0)
(-0.0479651 0.0415894 0)
(-0.00216051 -0.24032 0)
(-0.00658692 -0.240748 0)
(-0.0110441 -0.23735 0)
(-0.015405 -0.232306 0)