/*--------------------------------*- C++ -*----------------------------------*\
| =========                 |                                                 |
| \\      /  F ield         | OpenFOAM: The Open Source CFD Toolbox           |
|  \\    /   O peration     | Version:  2206                                  |
|   \\  /    A nd           | Website:  www.openfoam.com                      |
|    \\/     M anipulation  |                                                 |
\*---------------------------------------------------------------------------*/
FoamFile
{
    version     2.0;
    format      ascii;
    arch        "LSB;label=32;scalar=64";
    class       surfaceScalarField;
    location    "0.25";
    object      alphaPhi0.water;
}
// * * * * * * * * * * * * * * * * * * * * * * * * * * * * * * * * * * * * * //

dimensions      [0 3 -1 0 0 0 0];

oriented        oriented;

internalField   nonuniform List<scalar> 
4432
(
4.94049e-07
-4.94049e-07
5.14617e-06
-4.65212e-06
1.13437e-05
-6.19751e-06
1.73707e-05
-6.02708e-06
2.26757e-05
-5.30491e-06
2.73396e-05
-4.66397e-06
3.16175e-05
-4.27789e-06
3.57192e-05
-4.10166e-06
3.97459e-05
-4.02675e-06
4.36975e-05
-3.9516e-06
4.75006e-05
-3.80306e-06
5.10301e-05
-3.52958e-06
5.41206e-05
-3.09049e-06
5.65244e-05
-2.40379e-06
5.78931e-05
-1.36864e-06
5.73519e-05
5.4116e-07
5.31984e-05
4.15352e-06
4.37457e-05
9.45275e-06
2.78166e-05
1.59291e-05
6.85729e-06
2.09593e-05
-9.52036e-06
1.82302e-05
-1.46366e-05
4.93133e-06
-1.48205e-05
5.56016e-07
-1.05007e-06
5.24061e-06
-9.3367e-06
1.14434e-05
-1.24003e-05
1.7462e-05
-1.20457e-05
2.27586e-05
-1.06015e-05
2.74263e-05
-9.33167e-06
3.17256e-05
-8.57719e-06
3.5863e-05
-8.23907e-06
3.99337e-05
-8.09749e-06
4.39341e-05
-7.952e-06
4.77908e-05
-7.65972e-06
5.13825e-05
-7.12129e-06
5.45409e-05
-6.24894e-06
5.70733e-05
-4.93612e-06
5.87262e-05
-3.02158e-06
5.95694e-05
-3.02086e-07
5.99248e-05
3.7982e-06
5.87903e-05
1.05872e-05
5.3176e-05
2.15435e-05
3.91857e-05
3.49495e-05
1.7775e-05
3.99041e-05
1.98635e-06
2.19256e-05
-1.42551e-05
6.57238e-07
-1.70731e-06
5.3798e-06
-1.40593e-05
1.15471e-05
-1.85676e-05
1.74875e-05
-1.79861e-05
2.27115e-05
-1.58256e-05
2.73407e-05
-1.39608e-05
3.1641e-05
-1.28775e-05
3.58097e-05
-1.24077e-05
3.99293e-05
-1.22171e-05
4.39886e-05
-1.20112e-05
4.79127e-05
-1.15839e-05
5.15838e-05
-1.07924e-05
5.48474e-05
-9.51259e-06
5.75133e-05
-7.60201e-06
5.93517e-05
-4.85989e-06
6.00625e-05
-1.01292e-06
5.95365e-05
4.32417e-06
5.82896e-05
1.1834e-05
5.70093e-05
2.28238e-05
5.34355e-05
3.85233e-05
4.14819e-05
5.18577e-05
2.05435e-05
4.2865e-05
4.673e-06
8.10421e-07
-2.51773e-06
5.59552e-06
-1.88444e-05
1.17079e-05
-2.468e-05
1.75308e-05
-2.3809e-05
2.26521e-05
-2.09469e-05
2.72344e-05
-1.85431e-05
3.15463e-05
-1.71894e-05
3.57684e-05
-1.66298e-05
3.99649e-05
-1.64137e-05
4.41142e-05
-1.61605e-05
4.81403e-05
-1.561e-05
5.19311e-05
-1.45832e-05
5.53436e-05
-1.29251e-05
5.8202e-05
-1.04604e-05
6.0295e-05
-6.95285e-06
6.13683e-05
-2.08625e-06
6.11434e-05
4.54909e-06
5.95547e-05
1.34227e-05
5.74981e-05
2.48804e-05
5.60785e-05
3.9943e-05
5.03184e-05
5.76178e-05
3.13347e-05
6.18488e-05
3.47599e-05
1.01412e-06
-3.53185e-06
5.87402e-06
-2.37043e-05
1.19037e-05
-3.07096e-05
1.75708e-05
-2.94761e-05
2.25646e-05
-2.59407e-05
2.70958e-05
-2.30743e-05
3.14303e-05
-2.1524e-05
3.5724e-05
-2.09235e-05
4.0018e-05
-2.07077e-05
4.4279e-05
-2.04215e-05
4.84312e-05
-1.97622e-05
5.23705e-05
-1.85225e-05
5.59682e-05
-1.65228e-05
5.90678e-05
-1.35601e-05
6.1481e-05
-9.36604e-06
6.29822e-05
-3.58742e-06
6.33202e-05
4.21111e-06
6.22708e-05
1.44721e-05
5.97257e-05
2.74255e-05
5.68183e-05
4.28504e-05
5.21555e-05
6.22806e-05
3.58815e-05
7.81228e-05
6.93491e-05
1.26358e-06
-4.79543e-06
6.19892e-06
-2.86396e-05
1.21135e-05
-3.66242e-05
1.75914e-05
-3.49539e-05
2.24415e-05
-3.07909e-05
2.69238e-05
-2.75566e-05
3.12928e-05
-2.5893e-05
3.56722e-05
-2.53029e-05
4.00772e-05
-2.51128e-05
4.44635e-05
-2.48078e-05
4.87574e-05
-2.40561e-05
5.28662e-05
-2.26313e-05
5.66787e-05
-2.03353e-05
6.00594e-05
-1.69408e-05
6.28401e-05
-1.21468e-05
6.48119e-05
-5.55919e-06
6.57258e-05
3.29722e-06
6.53511e-05
1.48467e-05
6.32558e-05
2.95208e-05
5.92811e-05
4.68251e-05
5.33567e-05
6.8205e-05
3.8127e-05
9.33524e-05
0.000106186
1.55025e-06
-6.34568e-06
6.55508e-06
-3.36444e-05
1.23202e-05
-4.23893e-05
1.75828e-05
-4.02165e-05
2.22834e-05
-3.54916e-05
2.67251e-05
-3.19982e-05
3.11411e-05
-3.03091e-05
3.56166e-05
-2.97784e-05
4.014e-05
-2.96362e-05
4.46581e-05
-2.93258e-05
4.91033e-05
-2.85014e-05
5.33987e-05
-2.69266e-05
5.74526e-05
-2.43892e-05
6.11494e-05
-2.06376e-05
6.43375e-05
-1.53349e-05
6.68226e-05
-8.04427e-06
6.83479e-05
1.77198e-06
6.86588e-05
1.45357e-05
6.73641e-05
3.08155e-05
6.36462e-05
5.05431e-05
5.6727e-05
7.51242e-05
4.31202e-05
0.000106959
0.000149478
1.8608e-06
-8.20648e-06
6.92126e-06
-3.87049e-05
1.25082e-05
-4.79763e-05
1.75455e-05
-4.52537e-05
2.21041e-05
-4.00503e-05
2.65192e-05
-3.64132e-05
3.09932e-05
-3.47831e-05
3.55698e-05
-3.4355e-05
4.0213e-05
-3.42794e-05
4.48656e-05
-3.39784e-05
4.94731e-05
-3.31089e-05
5.39781e-05
-3.14316e-05
5.83078e-05
-2.87189e-05
6.23624e-05
-2.46922e-05
6.60021e-05
-1.89746e-05
6.90398e-05
-1.10819e-05
7.12185e-05
-4.06783e-07
7.22538e-05
1.35004e-05
7.18585e-05
3.12108e-05
6.92834e-05
5.31182e-05
6.26023e-05
8.18052e-05
4.84468e-05
0.000121115
0.000201441
6.45555e-18
-2.45721e-17
9.6257e-20
-4.51592e-19
1.94345e-21
-4.00046e-21
3.29449e-23
-2.02843e-22
5.67636e-25
-2.20408e-24
1.12498e-26
-2.86064e-26
2.6812e-28
-4.54895e-28
8.76538e-30
-8.52428e-30
3.02952e-31
-1.68815e-31
1.04482e-32
6.29597e-34
3.46107e-34
1.4185e-34
1.00601e-35
9.17388e-36
2.49943e-37
4.1184e-37
5.03906e-39
1.42504e-38
7.82324e-41
3.84741e-40
8.61254e-43
7.97451e-42
5.96688e-45
1.18963e-43
2.20843e-45
1.11734e-45
4.29328e-47
3.99375e-16
-7.83417e-16
8.46959e-18
6.81656e-17
1.67959e-19
-5.63105e-19
3.16344e-21
-3.50454e-20
4.64794e-23
-4.6467e-22
1.0741e-24
-5.39955e-24
3.16014e-26
-1.07905e-25
1.06078e-27
-2.43925e-27
3.64523e-29
-4.8237e-29
1.23901e-30
-7.5326e-33
4.10352e-32
5.28888e-32
1.19775e-33
3.71291e-33
3.0607e-35
1.74651e-34
6.51218e-37
6.38318e-36
1.09112e-38
1.84225e-37
1.32201e-40
4.13713e-39
9.89151e-43
6.81504e-41
6.06791e-45
7.35136e-43
3.94535e-45
2.10912e-14
-4.83026e-14
4.80399e-17
1.67191e-14
2.55865e-18
1.26004e-17
6.07616e-20
-7.274e-19
2.12242e-21
-1.85152e-20
6.0361e-23
-3.05481e-22
1.87037e-24
-7.98528e-24
6.01933e-26
-2.01893e-25
1.92451e-27
-4.02726e-27
6.05537e-29
-1.13932e-29
1.88013e-30
3.61936e-30
5.20747e-32
2.50352e-31
1.26882e-33
1.13106e-32
2.61175e-35
3.98608e-34
4.27745e-37
1.1205e-35
5.10278e-39
2.4633e-37
4.82885e-41
4.00435e-39
3.53899e-43
4.30337e-41
2.32134e-43
7.72476e-13
-1.87781e-12
2.72473e-15
5.88768e-13
-1.86551e-18
1.05967e-15
2.1066e-18
-4.14549e-18
9.56278e-20
-4.14389e-19
2.00235e-21
-1.05963e-20
6.25259e-23
-2.95841e-22
1.99394e-24
-7.90859e-24
6.12727e-26
-1.59439e-25
1.83699e-27
-7.5599e-28
5.64297e-29
1.37139e-28
1.56213e-30
9.83675e-30
3.75232e-32
4.44539e-31
7.68003e-34
1.55573e-32
1.25744e-35
4.36929e-34
1.90144e-37
9.61854e-36
1.86541e-39
1.57834e-37
1.45505e-41
1.71096e-39
9.30554e-42
1.94913e-11
-4.55074e-11
8.32245e-14
1.43361e-11
2.37282e-15
3.32382e-14
1.80398e-17
-1.20988e-16
1.39327e-18
-8.08651e-18
4.82919e-20
-3.11112e-19
1.48313e-21
-1.00213e-20
5.11799e-23
-2.68082e-22
1.63231e-24
-5.7508e-24
4.32358e-26
-4.055e-26
1.30071e-27
3.95714e-27
3.70426e-29
2.79426e-28
9.01066e-31
1.29748e-29
1.85502e-32
4.5954e-31
3.76013e-34
1.30544e-32
5.70852e-36
2.93204e-34
5.75067e-38
4.89772e-36
4.65347e-40
5.39131e-38
2.98275e-40
3.28793e-10
-7.62946e-10
4.96256e-13
1.22856e-10
4.97975e-15
-2.21981e-12
3.06555e-16
-8.40724e-15
1.33872e-17
-2.58344e-16
1.00981e-18
-6.43799e-18
3.52116e-20
-2.44303e-19
1.24162e-21
-7.81104e-21
4.32994e-23
-1.55227e-22
1.13125e-24
-1.39937e-24
3.22929e-26
1.44705e-25
9.51642e-28
8.11739e-27
2.34733e-29
3.89828e-28
5.50636e-31
1.41475e-29
1.15391e-32
4.11369e-31
1.82056e-34
9.46908e-33
1.90454e-36
1.61669e-34
1.45679e-38
1.81689e-36
1.02074e-38
3.8944e-09
-9.97817e-09
1.93462e-10
-2.07336e-09
1.77927e-13
3.76445e-14
5.32016e-15
-7.38612e-14
1.55697e-16
-2.34229e-15
1.16017e-17
-1.27429e-16
6.37716e-19
-4.33922e-18
2.57547e-20
-1.65021e-19
1.60754e-21
-4.20925e-21
4.17208e-23
-9.63669e-23
7.30373e-25
3.69451e-24
2.58715e-26
2.1882e-25
6.13861e-28
1.12757e-26
1.49991e-29
4.18955e-28
3.32097e-31
1.25176e-29
5.54934e-33
2.97039e-31
6.12376e-35
5.20713e-33
4.58309e-37
6.0045e-35
3.46502e-37
1.61483e-08
-4.26389e-08
3.56108e-10
-3.80225e-09
8.30855e-12
6.08697e-11
5.20713e-13
3.77113e-12
5.81731e-15
3.99889e-13
4.32078e-16
2.76504e-15
2.71873e-17
2.06588e-16
1.40853e-18
1.57685e-17
8.751e-20
9.06339e-19
3.0861e-21
2.88517e-20
2.69007e-23
1.33912e-22
1.14365e-24
9.3564e-24
2.66163e-26
5.26431e-25
7.01925e-28
1.99775e-26
1.60589e-29
6.17492e-28
2.79972e-31
1.51462e-29
3.27162e-33
2.74415e-31
2.13211e-35
3.25895e-33
1.92211e-35
4.94313e-06
-1.31496e-05
1.59285e-05
-4.96902e-05
2.7179e-05
-5.92269e-05
3.7129e-05
-5.52036e-05
4.64217e-05
-4.9343e-05
5.58007e-05
-4.57922e-05
6.55434e-05
-4.45257e-05
7.56156e-05
-4.44273e-05
8.58932e-05
-4.4557e-05
9.62747e-05
-4.43599e-05
0.000106705
-4.35395e-05
0.000117113
-4.1839e-05
0.000127374
-3.89798e-05
0.000137339
-3.46572e-05
0.000146799
-2.84355e-05
0.000155424
-1.97066e-05
0.000162631
-7.61323e-06
0.000167527
8.60453e-06
0.00016987
2.88676e-05
0.000169286
5.37022e-05
0.000166238
8.48527e-05
0.000168847
0.000118506
0.000172098
0.00019819
6.35618e-06
-1.95058e-05
1.74025e-05
-6.07366e-05
2.77407e-05
-6.95651e-05
3.67958e-05
-6.42586e-05
4.57017e-05
-5.8249e-05
5.51608e-05
-5.52512e-05
6.52425e-05
-5.46075e-05
7.57738e-05
-5.49586e-05
8.66109e-05
-5.53941e-05
9.77074e-05
-5.54564e-05
0.000109071
-5.49036e-05
0.000120615
-5.33829e-05
0.000132214
-5.05783e-05
0.000143944
-4.63871e-05
0.000155882
-4.03735e-05
0.000167922
-3.1747e-05
0.00017961
-1.93009e-05
0.000189451
-1.2351e-06
0.000197961
2.03573e-05
0.000204478
4.71854e-05
0.000213121
7.62098e-05
0.000227981
0.000103646
0.000139139
0.00026094
7.74756e-06
-2.72534e-05
1.86815e-05
-7.16705e-05
2.80121e-05
-7.88957e-05
3.62877e-05
-7.25342e-05
4.49887e-05
-6.695e-05
5.46185e-05
-6.4881e-05
6.50047e-05
-6.49936e-05
7.58709e-05
-6.58248e-05
8.70806e-05
-6.66037e-05
9.86066e-05
-6.69823e-05
0.000110419
-6.67155e-05
0.000122355
-6.53191e-05
0.000134569
-6.27922e-05
0.000147935
-5.97518e-05
0.000162739
-5.51774e-05
0.00017891
-4.79189e-05
0.000194394
-3.47857e-05
0.000209265
-1.61066e-05
0.000222572
7.05005e-06
0.000231745
3.80126e-05
0.000242663
6.52917e-05
0.000255371
9.09379e-05
0.000115288
0.000279222
9.04682e-06
-3.63002e-05
1.9641e-05
-8.22646e-05
2.79373e-05
-8.71918e-05
3.56023e-05
-8.01991e-05
4.42095e-05
-7.5557e-05
5.39107e-05
-7.45821e-05
6.42734e-05
-7.53559e-05
7.49408e-05
-7.64917e-05
8.57736e-05
-7.74357e-05
9.67358e-05
-7.7943e-05
0.000107887
-7.78637e-05
0.000119456
-7.68823e-05
0.000132654
-7.59819e-05
0.000149716
-7.67923e-05
0.000168091
-7.3545e-05
0.000184575
-6.1992e-05
0.000193084
-3.7956e-05
0.000202174
-1.8394e-05
0.000214038
-2.03138e-06
0.000235525
1.70341e-05
0.000257363
4.34535e-05
0.000271193
7.71081e-05
9.87817e-05
0.000287702
1.028e-05
-4.65801e-05
2.00792e-05
-9.20621e-05
2.71851e-05
-9.42953e-05
3.42736e-05
-8.72857e-05
4.26131e-05
-8.38947e-05
5.18815e-05
-8.38481e-05
6.14367e-05
-8.49064e-05
7.09754e-05
-8.60214e-05
8.05574e-05
-8.70035e-05
9.04415e-05
-8.78042e-05
0.000101486
-8.88514e-05
0.00011539
-9.06809e-05
0.000130373
-8.82466e-05
0.000128914
-5.82599e-05
9.41365e-05
-1.90887e-05
5.55607e-05
-5.32693e-06
3.36718e-05
-1.32506e-06
2.44791e-05
-3.46569e-07
2.34047e-05
-1.4759e-07
3.98243e-05
6.85087e-07
8.04845e-05
1.67124e-06
0.000150125
3.49759e-06
1.25252e-05
0.000230679
1.14651e-05
-5.80434e-05
1.97482e-05
-0.000100321
2.52507e-05
-9.97709e-05
3.15803e-05
-9.35908e-05
3.92582e-05
-9.15472e-05
4.75598e-05
-9.21171e-05
5.59437e-05
-9.32237e-05
6.46562e-05
-9.46112e-05
7.47521e-05
-9.69028e-05
8.57096e-05
-9.45467e-05
9.0378e-05
-7.38262e-05
7.62523e-05
-3.48575e-05
4.19604e-05
-8.40551e-06
2.54834e-05
-1.96744e-06
6.86076e-06
-3.89036e-07
1.63036e-06
-8.14611e-08
3.52818e-07
-1.92981e-08
1.21258e-07
-3.43055e-08
1.56253e-07
-5.85288e-08
9.69058e-07
-1.65455e-09
2.51901e-06
1.1655e-07
5.40939e-06
4.78518e-07
9.25679e-07
1.61959e-05
1.31199e-05
-7.11239e-05
1.9189e-05
-0.000106115
2.24144e-05
-0.000102711
2.81477e-05
-9.90478e-05
3.5692e-05
-9.87886e-05
4.40249e-05
-9.53348e-05
5.11375e-05
-8.23343e-05
5.48814e-05
-6.34606e-05
5.10957e-05
-3.84065e-05
3.37265e-05
-7.54799e-06
1.58526e-05
-1.33635e-06
1.07871e-05
-2.36305e-07
2.42784e-06
-3.66939e-08
4.79887e-07
-1.81804e-08
1.00471e-07
-1.03273e-08
2.09678e-08
-2.87636e-09
2.38562e-08
-2.05628e-09
1.05025e-07
-4.55184e-08
4.51677e-07
-2.18721e-07
5.62146e-07
-1.71001e-07
4.53723e-07
1.91101e-08
7.86951e-07
1.44349e-08
5.86515e-08
1.61878e-06
1.60522e-05
-6.80624e-05
1.64805e-05
-4.8601e-05
1.74883e-05
-4.28523e-05
2.08984e-05
-3.86942e-05
2.31962e-05
-2.98342e-05
2.15609e-05
-2.64895e-06
1.63435e-05
-2.38277e-07
9.4706e-06
-2.51878e-08
9.15687e-06
-3.09241e-09
1.61055e-06
-4.18524e-10
2.75876e-07
-7.40164e-10
4.60368e-08
-6.07279e-09
1.82549e-08
-9.50253e-09
1.42564e-08
-1.49365e-08
1.16765e-08
-8.66425e-09
9.48903e-09
-1.60578e-09
2.58991e-08
-1.93842e-08
5.25875e-07
-1.49498e-07
6.64899e-07
-3.07926e-07
7.89143e-07
-2.45427e-07
3.6432e-07
-6.51188e-08
1.42632e-07
7.4007e-09
7.37919e-09
1.82073e-07
6.97435e-06
1.83753e-23
2.25261e-06
3.45752e-24
2.72426e-06
-1.88763e-21
2.37362e-06
-1.95104e-19
2.916e-06
-7.93854e-18
2.67054e-07
-1.54943e-16
2.87773e-08
-1.44449e-16
3.58943e-09
-2.65651e-16
4.78229e-10
-1.38234e-13
5.92473e-11
-1.79094e-13
2.46851e-10
-2.19008e-10
2.9137e-09
-7.72081e-09
1.04163e-08
-1.65641e-08
2.12621e-08
-3.54771e-08
2.13432e-08
-1.00864e-08
1.93513e-08
-5.26235e-10
3.96445e-07
-1.66429e-08
5.36714e-07
-2.04083e-07
5.83541e-07
-2.93492e-07
5.46019e-07
-1.58087e-07
6.00305e-08
-2.59415e-08
1.80775e-08
1.72446e-09
3.88682e-10
2.3744e-08
-2.21364e-24
9.12355e-23
-9.78542e-25
4.94661e-24
9.07206e-23
-1.97933e-21
1.19302e-20
-2.07193e-19
5.41534e-19
-8.4913e-18
9.25117e-18
-1.64516e-16
2.82288e-17
-1.80266e-16
6.20504e-17
-3.14966e-16
1.52937e-14
-1.53182e-13
2.9886e-13
-4.74565e-13
9.82637e-10
-1.20343e-09
2.32948e-08
-2.97692e-08
1.14071e-07
-1.07663e-07
8.06516e-08
-1.04018e-07
4.67766e-08
-2.27258e-08
4.42499e-08
3.91151e-10
4.46353e-07
-1.03242e-08
5.10626e-07
-1.95909e-07
4.75217e-07
-1.82955e-07
6.69456e-08
-6.97214e-08
6.04739e-10
-1.61108e-09
1.6941e-09
3.2915e-11
-4.7791e-12
1.96226e-09
-1.76612e-24
8.81802e-23
-5.90238e-25
-1.35749e-23
7.03888e-22
-4.81833e-21
8.8693e-20
-4.03212e-19
4.00648e-18
-1.63313e-17
8.3024e-17
-4.77128e-16
1.36455e-16
-5.8561e-16
1.09743e-15
-1.19381e-15
2.35431e-13
-3.8702e-13
2.48294e-12
-2.74806e-12
8.27662e-09
-9.47175e-09
6.88371e-08
-1.07395e-07
1.05023e-07
-1.33827e-07
1.11417e-07
-1.0072e-07
5.24648e-08
-2.17348e-08
4.6586e-08
1.73349e-10
2.71574e-07
-2.87607e-08
3.55171e-07
-1.84612e-07
1.32153e-07
-1.11954e-07
1.9693e-09
-4.90505e-09
1.4463e-10
-2.2311e-10
1.32644e-10
-7.70215e-12
-5.61695e-13
1.22986e-10
-3.42958e-24
1.60055e-22
1.44252e-23
-6.97463e-23
5.53293e-21
-3.50573e-20
7.31084e-19
-3.59793e-18
3.24302e-17
-1.36206e-16
3.14523e-16
-1.58529e-15
3.00633e-16
-9.69859e-16
6.70474e-15
-7.34094e-15
1.1617e-12
-1.54465e-12
1.28143e-11
-1.4511e-11
2.28166e-08
-1.50922e-08
5.56661e-08
-1.21898e-07
6.25488e-08
-1.26299e-07
5.32446e-08
-7.89662e-08
2.71108e-08
-1.50647e-08
1.18039e-07
-2.20143e-08
3.99592e-07
-1.13882e-07
1.70249e-07
-1.08539e-07
4.68641e-09
-8.39808e-09
2.00465e-10
-4.61616e-10
8.14407e-12
-3.62839e-11
2.60378e-12
-4.23403e-12
-2.44424e-12
5.51322e-12
-1.07237e-23
2.80907e-22
3.12955e-23
-7.17677e-23
1.53633e-20
-8.8108e-20
2.51174e-18
-1.24751e-17
9.98933e-17
-4.36391e-16
4.87704e-16
-2.82864e-15
6.47606e-16
-1.10971e-15
3.77933e-14
-4.41392e-14
3.7012e-12
-1.25574e-11
4.92552e-11
-6.07183e-11
1.14426e-08
-2.68936e-09
1.69394e-08
-6.84182e-09
1.45876e-08
-1.05601e-07
1.44929e-08
-1.40472e-07
1.42449e-08
-4.07693e-08
1.03498e-07
-1.01195e-07
1.24196e-07
-2.03905e-08
8.78913e-09
-2.91067e-09
4.97162e-10
-9.83936e-11
4.1882e-11
-6.06853e-12
6.10471e-12
-4.64692e-13
1.96507e-12
-5.04932e-14
-2.59396e-12
4.7149e-12
-1.77287e-23
4.60259e-22
3.14266e-23
2.56636e-22
1.99708e-20
-1.1986e-19
4.17001e-18
-2.30461e-17
1.46166e-16
-7.7569e-16
4.6677e-16
-3.72467e-15
8.42634e-16
-1.46738e-15
2.10985e-13
-2.54221e-13
3.17804e-12
-1.58158e-11
2.26159e-12
-8.54658e-11
-2.53528e-12
-6.05658e-11
-5.73923e-09
-7.70474e-10
-4.27924e-09
-2.39797e-08
7.61487e-10
-1.11911e-07
-1.4023e-08
-7.84983e-08
5.9727e-09
-4.16546e-08
3.01551e-09
-4.46265e-15
1.04828e-10
-6.11602e-15
6.54756e-12
-1.7695e-14
5.09887e-13
-2.72515e-14
1.08765e-13
-4.4666e-14
1.22474e-13
-2.5048e-14
-2.89269e-12
5.00457e-12
-2.22366e-23
6.93736e-22
-1.30423e-23
1.17611e-21
1.69655e-20
-1.18747e-19
4.19549e-18
-2.73093e-17
1.03643e-16
-8.81207e-16
3.27381e-16
-3.82014e-15
3.65082e-15
-4.72377e-15
9.90257e-14
-2.01582e-13
-3.59534e-12
-3.84674e-12
-8.75042e-13
-1.23788e-11
-3.68704e-11
-1.65703e-11
-6.42335e-10
-1.46597e-10
-2.07252e-08
-3.56197e-09
-2.9189e-08
-4.43085e-08
-6.28574e-09
-4.52475e-08
-2.75861e-16
-1.50585e-16
-1.12887e-17
-1.55037e-15
3.0285e-16
-6.09124e-15
1.16463e-15
-1.76921e-14
4.16678e-15
-2.71068e-14
3.0179e-14
-4.20462e-14
1.09752e-13
-7.53424e-14
-1.05272e-12
2.55951e-12
-2.30781e-23
9.54301e-22
-4.14761e-23
3.06497e-21
1.01342e-20
-6.09707e-20
2.97854e-18
-2.56855e-17
8.55831e-17
-8.10393e-16
2.15176e-16
-3.39166e-15
2.93768e-16
-5.41145e-15
9.99041e-16
-8.17261e-15
-9.17338e-13
-2.86007e-13
-1.36549e-12
-1.38226e-11
-1.08842e-11
-1.20551e-11
-1.43863e-10
-1.3848e-11
-1.80332e-09
-1.81839e-12
-6.8172e-09
-9.5616e-18
-1.47725e-16
-2.71204e-17
-1.93194e-16
-8.34904e-17
4.49456e-17
-1.41619e-15
1.67818e-15
-4.90311e-15
9.47957e-15
-1.08061e-14
2.13738e-14
-1.99399e-14
4.54851e-14
-3.66163e-14
1.27227e-13
-4.97228e-14
-1.38714e-12
7.4697e-13
-1.98943e-23
1.1819e-21
-7.07972e-23
5.99257e-21
2.39478e-21
-8.18761e-21
1.39846e-18
-1.1417e-17
3.58331e-17
-3.58177e-16
8.6985e-17
-1.62017e-15
1.67236e-17
-4.16034e-15
-2.16234e-15
-5.20132e-15
-6.1719e-14
-2.37091e-13
-1.65617e-12
-1.35922e-11
-1.52595e-12
-1.94562e-11
-9.83134e-14
-1.62046e-11
-2.52618e-18
-1.91655e-12
-2.87107e-18
-6.74015e-18
-1.48039e-17
-1.25395e-17
-4.52375e-17
-7.50296e-17
1.00276e-16
-1.01808e-15
1.24629e-15
-3.10963e-15
3.61746e-15
-7.2129e-15
1.02869e-14
-1.57769e-14
2.59418e-14
-3.82502e-14
1.103e-13
-4.6852e-14
-1.37209e-12
1.35028e-12
-1.40013e-23
1.28264e-21
-8.18886e-23
9.15796e-21
1.91695e-22
3.81361e-21
2.32133e-19
-1.56434e-18
5.23527e-18
-6.65849e-17
9.74205e-18
-4.57474e-16
-2.24041e-17
-3.37056e-15
1.71103e-15
-7.81262e-15
-2.09384e-13
-1.71513e-14
-2.03346e-12
-4.0697e-12
-2.10035e-12
-1.23178e-11
-1.64487e-12
-1.40804e-11
-4.03307e-18
-2.34746e-12
-1.56122e-18
-6.68142e-18
-5.34206e-18
-6.64871e-18
-1.69566e-17
-2.57745e-17
2.86283e-17
-2.82676e-16
4.07379e-16
-1.24319e-15
1.8798e-15
-4.10601e-15
6.41749e-15
-1.21458e-14
1.98014e-14
-3.47686e-14
8.82978e-14
-9.75236e-14
-1.32156e-12
1.16866e-12
-7.20193e-24
1.15991e-21
-5.48139e-23
1.03112e-20
-2.32619e-23
1.3289e-20
6.61518e-21
-6.47982e-20
-4.60906e-20
-5.55677e-18
-8.81838e-18
-1.01048e-16
-1.16827e-16
-2.70233e-15
-2.19308e-16
-1.06065e-14
-7.50664e-15
-1.30697e-14
-6.2717e-13
-4.75842e-15
-1.25236e-12
-1.01451e-13
-1.20649e-12
-5.56305e-12
-4.1604e-18
-1.10007e-16
-1.05759e-18
-7.67423e-18
-6.77424e-19
-5.67341e-18
-2.60141e-18
-3.54397e-18
1.97903e-18
-5.43709e-17
1.08746e-16
-4.08602e-16
7.65276e-16
-2.33122e-15
3.66877e-15
-9.90781e-15
1.66034e-14
-3.42187e-14
1.05557e-13
-1.32244e-13
-2.08107e-12
8.92669e-13
-1.5936e-24
8.02035e-22
2.51032e-25
8.00134e-21
-8.64724e-23
1.97687e-20
-1.02764e-21
-2.08244e-22
-5.47028e-20
-1.31868e-19
-9.43313e-18
-2.40089e-17
-2.88524e-16
-9.85812e-16
-4.14969e-16
-6.85316e-15
-9.51648e-17
-1.04873e-14
-1.12876e-15
-3.00794e-15
-9.87752e-14
-3.11498e-15
-2.31038e-18
-5.06054e-16
-1.42318e-18
-1.10634e-16
-7.09019e-19
-8.22005e-18
-2.24138e-19
-2.87179e-18
-3.62582e-19
-1.4221e-18
-1.19656e-18
-1.58723e-17
1.73289e-17
-2.002e-16
2.71147e-16
-1.58719e-15
1.93452e-15
-8.34858e-15
1.15671e-14
-3.41337e-14
2.84281e-14
-1.4277e-13
-2.01201e-12
9.18247e-13
1.30147e-23
3.78162e-22
9.42979e-23
3.9571e-21
-2.40849e-24
1.15678e-20
-1.41025e-22
-6.96277e-23
-9.71282e-21
-2.21683e-20
-2.75941e-18
-7.70257e-18
-9.67714e-17
-1.98697e-16
-4.45315e-16
-1.49494e-15
-2.9234e-16
-4.82469e-15
-4.68785e-17
-5.59097e-15
-1.57566e-17
-3.10451e-15
-1.45195e-17
-9.43713e-16
-1.59646e-18
-1.61618e-16
-2.93325e-19
-8.21216e-18
-9.91368e-20
-7.63607e-19
-1.26892e-19
-6.96994e-19
-1.23923e-18
-7.23219e-18
-4.45922e-18
-1.20266e-16
4.8726e-17
-1.13386e-15
6.77846e-16
-6.8952e-15
5.38031e-15
-3.17127e-14
5.35504e-14
-1.35916e-13
-1.82317e-12
5.71114e-13
1.48966e-23
1.04957e-22
9.97222e-23
1.06904e-21
-1.38516e-24
3.0544e-21
-4.85608e-23
-2.24521e-23
-1.0926e-20
-5.72705e-21
-7.39719e-19
-1.72701e-18
-1.59153e-17
-5.07995e-17
-1.1606e-16
-3.96902e-16
-3.91814e-16
-1.23359e-15
-2.52113e-16
-1.60561e-15
-1.39666e-16
-1.36343e-15
-3.0805e-17
-5.60839e-16
-1.74194e-18
-9.65987e-17
-5.07859e-20
-7.99427e-18
-4.72495e-20
-1.42052e-19
-6.96898e-20
-2.11992e-19
-1.08872e-18
-3.58384e-18
-1.28366e-17
-7.08668e-17
-7.39335e-17
-7.85643e-16
-2.07677e-16
-5.3621e-15
-1.17552e-16
-2.55715e-14
3.92228e-15
-1.2318e-13
-1.44542e-12
8.06865e-14
5.80543e-24
1.49278e-23
3.5883e-23
1.54703e-22
-5.39147e-25
4.77916e-22
-2.2422e-23
-5.69222e-25
-4.08648e-21
-1.16994e-22
-1.915e-19
-1.86626e-20
-5.04506e-18
-3.76808e-18
-3.02141e-17
-9.34464e-17
-1.26648e-16
-3.88501e-16
-1.12603e-16
-6.10078e-16
-6.29026e-17
-6.60256e-16
-1.45946e-17
-2.90158e-16
-1.68049e-18
-6.07425e-17
-4.3807e-21
-4.36541e-18
-4.83804e-21
1.07925e-19
-2.91511e-20
-2.47146e-20
-7.62925e-19
-1.39259e-18
-1.34362e-17
-3.24852e-17
-1.28926e-16
-4.37723e-16
-6.69697e-16
-3.55093e-15
-1.91461e-15
-1.87475e-14
-6.78e-15
-1.05043e-13
-1.1521e-12
1.36543e-13
1.0496e-24
-2.32275e-34
6.84642e-24
-1.22873e-31
-1.44637e-26
-4.38191e-29
-5.7372e-25
-9.96632e-27
-1.04508e-22
-1.7889e-24
-1.45398e-20
-2.56191e-22
-8.16633e-19
-3.35064e-20
-1.18039e-17
-4.56111e-18
-2.6128e-17
-3.69972e-17
-4.23918e-17
-7.11517e-17
-3.11991e-17
-7.05357e-17
-9.20145e-18
-2.78875e-17
-7.13734e-19
-1.14634e-17
1.47447e-20
-7.84051e-19
-5.05893e-21
1.58546e-19
-1.79577e-20
-1.18157e-20
-3.71705e-19
-4.88294e-19
-8.48513e-18
-1.2344e-17
-1.10419e-16
-2.01091e-16
-7.92277e-16
-2.07947e-15
-2.83391e-15
-1.54519e-14
1.78976e-14
-1.08909e-13
-1.27272e-12
4.31638e-13
-2.32553e-34
2.77397e-37
-1.22775e-31
-3.30607e-34
-4.38314e-29
-1.10495e-31
-1.00866e-26
-1.33321e-29
-1.7793e-24
-2.2023e-27
-2.55687e-22
-2.88081e-25
-2.10164e-20
-3.27826e-23
-8.37639e-19
-4.73008e-21
-3.45549e-18
-6.2852e-20
-3.96545e-18
-1.75192e-19
-2.43708e-18
-2.29035e-19
-1.25484e-18
-1.91881e-19
-1.28615e-19
-1.22314e-20
2.42987e-20
6.3945e-20
-3.05642e-21
1.06688e-19
-6.26574e-21
-8.60642e-21
-1.64254e-19
-2.56936e-19
-4.20927e-18
-5.98726e-18
-7.04631e-17
-1.05423e-16
-7.42238e-16
-1.384e-15
-2.80026e-15
-1.4309e-14
7.23608e-14
-1.46474e-13
-1.63162e-12
8.0701e-13
-1.3478e-36
3.1765e-36
-4.86227e-34
1.54272e-34
-1.13348e-31
2.36658e-33
-1.34418e-29
-4.98686e-32
-2.1088e-27
-9.31397e-30
-2.8079e-25
-1.02797e-27
-2.56293e-23
-1.05086e-25
-1.05071e-21
-1.41415e-23
-6.89439e-21
-4.90104e-22
-1.30397e-20
-2.67965e-21
-1.44092e-20
-5.45364e-21
-6.36884e-21
-5.83972e-21
1.00016e-20
1.29818e-21
1.82415e-20
1.549e-20
-2.48873e-21
2.49612e-20
-3.85047e-21
-7.37699e-21
-1.02962e-19
-1.71213e-19
-2.50838e-18
-3.76091e-18
-4.93781e-17
-6.87998e-17
-6.16163e-16
-1.04639e-15
-2.34911e-15
-1.21282e-14
2.59021e-14
-1.47018e-13
-1.61265e-12
2.40661e-13
1.48107e-36
6.2711e-36
4.66436e-35
4.04579e-34
-7.27916e-34
1.17116e-32
-2.56567e-31
2.04684e-31
-1.19595e-29
2.38698e-30
-1.03549e-27
1.70968e-29
-9.92708e-26
-1.46403e-28
-4.53032e-24
-3.02497e-26
-7.80393e-23
-2.78713e-24
-3.21698e-22
-4.18059e-23
-3.98861e-22
-8.61343e-23
1.98767e-22
8.82872e-23
2.64052e-21
9.41449e-22
4.70903e-21
2.99373e-21
-2.211e-21
3.85749e-21
-3.87947e-21
-5.70853e-21
-7.64728e-20
-1.1015e-19
-1.80204e-18
-2.30745e-18
-3.96078e-17
-4.21791e-17
-5.51468e-16
-6.76083e-16
-2.5984e-15
-9.2418e-15
-3.965e-14
-1.08792e-13
-1.19366e-12
-4.63212e-13
4.12021e-36
5.91709e-36
2.44103e-34
4.32589e-34
6.50755e-33
1.47735e-32
1.0314e-31
3.2214e-31
9.44141e-31
5.29177e-30
-4.53339e-30
7.77669e-29
-1.31879e-27
1.16786e-27
-4.86391e-26
1.70706e-26
-1.23071e-24
2.06397e-25
-4.84306e-24
1.8065e-24
1.28071e-23
1.08907e-23
1.5415e-22
4.63585e-23
5.50153e-22
1.44884e-22
7.9227e-22
3.23132e-22
-1.55199e-21
2.7147e-22
-4.97702e-21
-2.41342e-21
-7.33171e-20
-4.19607e-20
-1.53471e-18
-8.52603e-19
-2.931e-17
-1.51694e-17
-4.93253e-16
-2.36521e-16
-7.14706e-15
-3.20041e-15
-8.70957e-14
-3.65589e-14
-3.98788e-13
-9.29695e-13
4.58362e-36
2.5564e-36
3.19918e-34
2.04238e-34
1.06338e-32
7.71221e-33
2.37313e-31
1.84581e-31
4.45612e-30
3.13784e-30
8.23459e-29
4.02694e-29
1.44418e-27
4.05163e-28
2.05774e-26
3.27971e-27
2.09439e-25
2.17639e-26
1.45341e-24
1.20002e-25
7.06575e-24
5.54193e-25
2.5069e-23
2.14202e-24
6.31906e-23
6.76206e-24
5.98158e-23
1.50999e-23
-5.70702e-22
-6.15166e-24
-2.51116e-21
-4.92227e-22
-3.81226e-20
-7.99498e-21
-7.8208e-19
-1.57713e-19
-1.43179e-17
-2.7198e-18
-2.30587e-16
-4.10319e-17
-3.22996e-15
-5.39789e-16
-3.78241e-14
-6.17458e-15
-7.19334e-14
-4.10175e-13
2.21393e-36
3.39663e-38
1.70768e-34
2.49609e-36
6.22971e-33
8.86132e-35
1.43903e-31
2.04271e-33
2.36052e-30
3.43666e-32
2.92459e-29
4.49507e-31
2.84384e-28
4.75133e-30
2.22797e-27
4.16137e-29
1.43219e-26
3.06791e-28
7.63924e-26
1.91985e-27
3.38661e-25
1.02054e-26
1.22001e-24
4.55193e-26
3.0978e-24
1.60855e-25
-1.43184e-24
3.06728e-25
-7.48427e-23
-2.97741e-24
-5.2221e-22
-6.01966e-23
-7.99187e-21
-9.54654e-22
-1.59515e-19
-1.85585e-20
-2.81801e-18
-3.15538e-19
-4.3716e-17
-4.6883e-18
-5.94069e-16
-6.07875e-17
-6.91762e-15
-6.91333e-16
-8.42732e-15
-8.56509e-14
2.72624e-38
9.19743e-41
1.9764e-36
7.41564e-39
6.94526e-35
2.9157e-37
1.58843e-33
7.5251e-36
2.65732e-32
1.43348e-34
3.4622e-31
2.14684e-33
3.64774e-30
2.62555e-32
3.18115e-29
2.68445e-31
2.3268e-28
2.3258e-30
1.43318e-27
1.71627e-29
7.36106e-27
1.0727e-28
2.98233e-26
5.4965e-28
6.5015e-26
1.95395e-27
-4.7108e-25
-2.03897e-27
-3.19511e-24
-2.53382e-25
-6.11123e-23
-4.44892e-24
-1.00656e-21
-7.52542e-23
-1.98618e-20
-1.46447e-21
-3.45877e-19
-2.49615e-20
-5.29093e-18
-3.72061e-19
-7.01727e-17
-4.82003e-18
-9.06068e-16
-5.42955e-17
-7.0148e-16
-1.199e-14
8.04134e-41
1.62649e-43
6.4534e-39
1.46976e-41
2.53924e-37
6.55031e-40
6.5787e-36
1.93733e-38
1.26111e-34
4.26835e-37
1.9031e-33
7.44451e-36
2.34413e-32
1.06455e-34
2.4071e-31
1.27367e-33
2.08126e-30
1.28775e-32
1.51189e-29
1.09987e-31
8.95327e-29
7.7731e-31
3.6646e-28
4.10213e-30
-4.39299e-28
5.48664e-30
-2.43685e-26
-4.66847e-28
-2.698e-25
-1.40551e-26
-4.54401e-24
-2.39776e-25
-8.13218e-23
-4.43868e-24
-1.61127e-21
-8.82112e-23
-2.8281e-20
-1.53726e-21
-4.34596e-19
-2.34148e-20
-5.71429e-18
-3.13355e-19
-9.62197e-17
-3.5818e-18
-4.83918e-17
-1.19405e-15
1.55703e-43
6.3592e-47
1.41591e-41
7.12696e-45
6.38528e-40
3.94305e-43
1.91435e-38
1.44696e-41
4.27706e-37
3.94115e-40
7.55478e-36
8.44253e-39
1.09048e-34
1.4693e-37
1.30912e-33
2.1138e-36
1.3131e-32
2.52311e-35
1.08158e-31
2.44221e-34
6.61855e-31
1.68061e-33
1.02316e-30
4.1428e-34
-6.00803e-29
-2.80485e-31
-5.09457e-28
-1.74699e-29
-1.46169e-26
-5.02711e-28
-2.49919e-25
-8.79735e-27
-4.94148e-24
-1.81929e-25
-9.90008e-23
-3.76731e-24
-1.74799e-21
-6.84275e-23
-2.70918e-20
-1.0884e-21
-3.67793e-19
-1.52987e-20
-5.30491e-18
-1.81927e-19
-2.58981e-18
-9.80052e-17
7.22523e-47
1.77364e-51
8.1681e-45
2.71937e-49
4.57385e-43
2.00459e-47
1.69665e-41
9.58099e-46
4.66028e-40
3.32336e-44
1.00298e-38
8.84023e-43
1.74327e-37
1.83817e-41
2.47493e-36
2.87451e-40
2.81917e-35
2.46472e-39
2.26678e-34
-4.07543e-38
6.49856e-35
-2.88144e-36
-5.10292e-32
-1.43894e-34
-3.20441e-31
-1.10739e-32
-1.79084e-29
-4.02268e-31
-5.0781e-28
-1.19574e-29
-8.89679e-27
-2.20958e-28
-2.00255e-25
-5.33512e-27
-4.18013e-24
-1.17442e-25
-7.69787e-23
-2.27103e-24
-1.2459e-21
-3.84852e-23
-1.77908e-20
-5.78972e-22
-2.70238e-19
-7.32462e-21
-1.1182e-19
-5.7373e-18
2.56096e-51
1.01403e-55
3.88317e-49
1.69543e-53
2.8396e-47
1.37147e-51
1.34367e-45
7.20303e-50
4.58989e-44
2.65755e-48
1.18201e-42
6.34371e-47
2.23673e-41
1.57248e-46
2.28514e-40
-8.33515e-44
-4.45562e-39
-7.17134e-42
-1.12474e-37
-9.31768e-40
-2.93488e-36
-5.90307e-38
-1.43595e-34
-3.23316e-36
-1.1266e-32
-1.50165e-34
-4.16162e-31
-5.97538e-33
-8.78096e-30
-1.33486e-31
-2.39051e-28
-4.03919e-30
-5.77405e-27
-1.06777e-28
-1.28438e-25
-2.56437e-27
-2.51772e-24
-5.40867e-26
-4.33953e-23
-9.99692e-25
-6.6358e-22
-1.64494e-23
-1.0954e-20
-2.26935e-22
-3.7893e-21
-2.67623e-19
1.41979e-55
2.08742e-59
2.4037e-53
4.54551e-57
1.94344e-51
4.59071e-55
9.81269e-50
2.84837e-53
3.01542e-48
1.05059e-51
9.27785e-48
1.52008e-51
-5.9639e-45
-3.28427e-48
-8.8642e-44
-6.73429e-46
-7.19426e-42
-6.57198e-44
-9.43549e-40
-5.41071e-42
-6.0096e-38
-3.86242e-40
-3.30186e-36
-2.38353e-38
-1.54024e-34
-1.24678e-36
-5.90922e-33
-5.33757e-35
-1.43933e-31
-1.38326e-33
-4.25681e-30
-4.79164e-32
-1.13981e-28
-1.43389e-30
-2.76596e-27
-3.87007e-29
-5.9099e-26
-9.16739e-28
-1.10992e-24
-1.90142e-26
-1.85814e-23
-3.51799e-25
-3.40449e-22
-5.44406e-24
-1.01992e-22
-9.69067e-21
3.18555e-59
1.09419e-63
6.97356e-57
3.22539e-61
6.73689e-55
3.87998e-59
3.41826e-53
2.08016e-57
6.39001e-53
-8.84887e-56
-1.71893e-49
-3.20223e-53
-3.44676e-48
-9.39747e-51
-6.77186e-46
-1.28335e-48
-6.64394e-44
-1.47686e-46
-5.48211e-42
-1.42993e-44
-3.92194e-40
-1.19734e-42
-2.42528e-38
-8.63865e-41
-1.273e-36
-5.27234e-39
-3.43259e-35
-1.61036e-37
-1.45423e-33
-8.22495e-36
-4.98307e-32
-3.28511e-34
-1.50815e-30