/*--------------------------------*- C++ -*----------------------------------*\
| =========                 |                                                 |
| \\      /  F ield         | OpenFOAM: The Open Source CFD Toolbox           |
|  \\    /   O peration     | Version:  2206                                  |
|   \\  /    A nd           | Website:  www.openfoam.com                      |
|    \\/     M anipulation  |                                                 |
\*---------------------------------------------------------------------------*/
FoamFile
{
    version     2.0;
    format      ascii;
    arch        "LSB;label=32;scalar=64";
    class       volVectorField;
    location    "0.25";
    object      U;
}
// * * * * * * * * * * * * * * * * * * * * * * * * * * * * * * * * * * * * * //

dimensions      [0 1 -1 0 0 0 0];

internalField   nonuniform List<vector> 
2268
(
(-0.00947995 -0.00109356 0)
(0.0227462 -0.0123993 0)
(0.0908635 -0.0166996 0)
(0.16284 -0.0162836 0)
(0.228696 -0.0143026 0)
(0.285771 -0.0125121 0)
(0.336184 -0.0114048 0)
(0.383203 -0.010873 0)
(0.428897 -0.0106316 0)
(0.473843 -0.010404 0)
(0.517583 -0.00998522 0)
(0.558992 -0.0092288 0)
(0.596371 -0.00803307 0)
(0.62765 -0.0061484 0)
(0.648904 -0.00351369 0)
(0.658025 0.00256258 0)
(0.636033 0.0142638 0)
(0.566141 0.0327633 0)
(0.429057 0.0552072 0)
(0.216072 0.0689537 0)
(-0.0609842 0.0392047 0)
(-0.265961 -0.0565886 0)
(-0.079565 -0.109807 0)
(-0.00911054 -0.00358545 0)
(0.0239522 -0.0374393 0)
(0.0923649 -0.0502911 0)
(0.164244 -0.0490749 0)
(0.229798 -0.0431795 0)
(0.286719 -0.0378445 0)
(0.337258 -0.0345626 0)
(0.384624 -0.0330057 0)
(0.430798 -0.0323082 0)
(0.476297 -0.0316437 0)
(0.520641 -0.030407 0)
(0.562708 -0.0281756 0)
(0.600918 -0.024602 0)
(0.633042 -0.0191826 0)
(0.657385 -0.011255 0)
(0.668717 0.00184078 0)
(0.676473 0.0235564 0)
(0.678835 0.057736 0)
(0.656781 0.106169 0)
(0.558513 0.158873 0)
(0.334044 0.165534 0)
(-0.000445974 0.0901881 0)
(0.0695134 -0.119119 0)
(-0.00841012 -0.00649502 0)
(0.0258132 -0.0625544 0)
(0.0941738 -0.0836854 0)
(0.165294 -0.0815175 0)
(0.229768 -0.071706 0)
(0.285899 -0.0629293 0)
(0.336192 -0.0576217 0)
(0.383771 -0.0551665 0)
(0.430442 -0.0540877 0)
(0.476588 -0.0530239 0)
(0.521675 -0.0509989 0)
(0.564591 -0.0473389 0)
(0.603803 -0.0414627 0)
(0.637381 -0.0327195 0)
(0.663 -0.0200196 0)
(0.677916 -0.00258188 0)
(0.679116 0.0222565 0)
(0.667174 0.060103 0)
(0.654563 0.119324 0)
(0.641803 0.201328 0)
(0.572633 0.255139 0)
(0.324233 0.18454 0)
(0.192402 -0.03721 0)
(-0.00734934 -0.0100521 0)
(0.0285792 -0.0879654 0)
(0.0967692 -0.116869 0)
(0.166755 -0.113437 0)
(0.229734 -0.0997463 0)
(0.284841 -0.087772 0)
(0.334902 -0.0807163 0)
(0.382897 -0.0775722 0)
(0.430366 -0.0762348 0)
(0.477505 -0.0748403 0)
(0.523708 -0.0720838 0)
(0.567887 -0.0670693 0)
(0.608603 -0.0590387 0)
(0.644071 -0.0471401 0)
(0.672193 -0.0302408 0)
(0.690494 -0.00678899 0)
(0.696395 0.0253946 0)
(0.686387 0.0692249 0)
(0.662262 0.128634 0)
(0.638764 0.212176 0)
(0.632699 0.298933 0)
(0.486864 0.283091 0)
(0.280551 0.103619 0)
(-0.00590393 -0.0145749 0)
(0.0321404 -0.113782 0)
(0.0999431 -0.14966 0)
(0.168363 -0.144556 0)
(0.229468 -0.127108 0)
(0.283387 -0.112322 0)
(0.333271 -0.103902 0)
(0.381867 -0.100332 0)
(0.430367 -0.0988818 0)
(0.478744 -0.0972368 0)
(0.52632 -0.0938199 0)
(0.572055 -0.0875546 0)
(0.614631 -0.0775323 0)
(0.652459 -0.062749 0)
(0.683681 -0.0418851 0)
(0.706096 -0.0131696 0)
(0.717338 0.0255941 0)
(0.714235 0.0768976 0)
(0.694948 0.141727 0)
(0.653834 0.221546 0)
(0.631326 0.32137 0)
(0.537685 0.37337 0)
(0.328119 0.285207 0)
(-0.00403407 -0.0204377 0)
(0.0363142 -0.139984 0)
(0.103473 -0.181864 0)
(0.169901 -0.174659 0)
(0.228828 -0.153651 0)
(0.281495 -0.136552 0)
(0.33131 -0.127239 0)
(0.380677 -0.123551 0)
(0.430375 -0.122148 0)
(0.480144 -0.120346 0)
(0.529254 -0.11637 0)
(0.576739 -0.109012 0)
(0.621449 -0.0972509 0)
(0.662016 -0.0799508 0)
(0.696821 -0.0556167 0)
(0.723868 -0.0222745 0)
(0.740897 0.0225038 0)
(0.744584 0.0808871 0)
(0.733454 0.154539 0)
(0.695062 0.24028 0)
(0.644592 0.347207 0)
(0.554385 0.457585 0)
(0.349345 0.487511 0)
(-0.00174554 -0.0276725 0)
(0.0409034 -0.166558 0)
(0.107151 -0.213466 0)
(0.171217 -0.203773 0)
(0.227773 -0.179421 0)
(0.279224 -0.160499 0)
(0.329121 -0.15074 0)
(0.379412 -0.147209 0)
(0.430415 -0.145981 0)
(0.481649 -0.144085 0)
(0.53237 -0.139624 0)
(0.581745 -0.131318 0)
(0.628831 -0.118067 0)
(0.672495 -0.0986232 0)
(0.711306 -0.0713397 0)
(0.743441 -0.034061 0)
(0.76668 0.0158441 0)
(0.777807 0.0807628 0)
(0.774315 0.163171 0)
(0.747901 0.261434 0)
(0.690969 0.382159 0)
(0.591229 0.53376 0)
(0.395953 0.690304 0)
(0.00086124 -0.0363503 0)
(0.0456777 -0.19366 0)
(0.11074 -0.244428 0)
(0.172219 -0.231904 0)
(0.226408 -0.204533 0)
(0.276797 -0.184298 0)
(0.326945 -0.174487 0)
(0.378258 -0.171316 0)
(0.430601 -0.170331 0)
(0.483313 -0.168347 0)
(0.535709 -0.163416 0)
(0.587163 -0.15423 0)
(0.636972 -0.139623 0)
(0.684182 -0.118226 0)
(0.727494 -0.08822 0)
(0.765204 -0.0472861 0)
(0.79506 0.00735417 0)
(0.81412 0.0784934 0)
(0.818885 0.168641 0)
(0.806112 0.279005 0)
(0.760167 0.419069 0)
(0.673512 0.613237 0)
(0.386299 0.951777 0)
(0.0412708 -0.0192466 0)
(0.108727 -0.00947688 0)
(0.133234 -0.00262092 0)
(0.143818 -0.00131194 0)
(0.153906 -0.000894321 0)
(0.160235 -0.000600648 0)
(0.164315 -0.000327754 0)
(0.166926 -2.00867e-05 0)
(0.168015 0.000206218 0)
(0.167153 0.000629088 0)
(0.163368 0.00126575 0)
(0.155868 0.00196962 0)
(0.144645 0.00269602 0)
(0.129692 0.00340513 0)
(0.111308 0.00403201 0)
(0.0898885 0.00459946 0)
(0.0659958 0.00501545 0)
(0.0402471 0.00530765 0)
(0.0134631 0.00552844 0)
(0.0297099 -0.0496307 0)
(0.0981697 -0.0273244 0)
(0.12608 -0.0114849 0)
(0.143118 -0.00779832 0)
(0.157486 -0.00508843 0)
(0.165863 -0.00343502 0)
(0.171872 -0.0024461 0)
(0.176498 -0.00149989 0)
(0.179377 -0.000427709 0)
(0.179959 0.00116894 0)
(0.177381 0.00329822 0)
(0.171151 0.00573631 0)
(0.16058 0.00827479 0)
(0.145309 0.0107855 0)
(0.125629 0.0130429 0)
(0.102052 0.0150167 0)
(0.0752289 0.0165198 0)
(0.0459926 0.0175732 0)
(0.0153276 0.0179455 0)
(0.0376154 -0.0787034 0)
(0.110255 -0.0464335 0)
(0.133397 -0.0204368 0)
(0.145947 -0.0145999 0)
(0.159002 -0.00933094 0)
(0.166538 -0.00616961 0)
(0.171999 -0.00451109 0)
(0.176352 -0.00309258 0)
(0.179212 -0.00121606 0)
(0.179951 0.0015459 0)
(0.177458 0.00512349 0)
(0.171064 0.00933681 0)
(0.160304 0.0137931 0)
(0.144908 0.0182384 0)
(0.125174 0.022295 0)
(0.101608 0.0257816 0)
(0.0748652 0.0284994 0)
(0.0457641 0.0303651 0)
(0.0152375 0.0310527 0)
(0.0501769 -0.115655 0)
(0.123402 -0.0630939 0)
(0.139449 -0.0256181 0)
(0.147813 -0.0201267 0)
(0.160788 -0.0128007 0)
(0.167517 -0.00848834 0)
(0.172473 -0.00640505 0)
(0.176831 -0.00458973 0)
(0.180004 -0.00205052 0)
(0.181149 0.00182766 0)
(0.178978 0.00690423 0)
(0.172704 0.0129466 0)
(0.161897 0.0193659 0)
(0.146342 0.0257193 0)
(0.126367 0.0315688 0)
(0.102532 0.0365713 0)
(0.075513 0.0404797 0)
(0.0461525 0.0431368 0)
(0.0153729 0.0441211 0)
(0.0690204 -0.174629 0)
(0.141751 -0.0791526 0)
(0.144961 -0.0287537 0)
(0.148414 -0.0265884 0)
(0.162852 -0.0160518 0)
(0.168677 -0.0103517 0)
(0.17301 -0.0081631 0)
(0.177514 -0.00626749 0)
(0.181252 -0.00317285 0)
(0.183062 0.00186118 0)
(0.181469 0.00851472 0)
(0.175567 0.0164873 0)
(0.164849 0.0249671 0)
(0.149161 0.0333081 0)
(0.128866 0.0409744 0)
(0.104569 0.0475148 0)
(0.0770091 0.0526067 0)
(0.0470703 0.0560818 0)
(0.015685 0.057356 0)
(0.0835141 -0.21969 0)
(0.18168 -0.0862183 0)
(0.152048 -0.0263937 0)
(0.144962 -0.033832 0)
(0.163792 -0.0189085 0)
(0.169263 -0.011651 0)
(0.173148 -0.00982623 0)
(0.178069 -0.00818216 0)
(0.182733 -0.00462921 0)
(0.185527 0.00158083 0)
(0.184725 0.00992794 0)
(0.179321 0.0199413 0)
(0.168736 0.0305742 0)
(0.152879 0.0410263 0)
(0.132171 0.0505808 0)
(0.107276 0.058697 0)
(0.0790084 0.0650186 0)
(0.0482987 0.0693347 0)
(0.0160978 0.0709088 0)
(0.0489802 -0.233018 0)
(0.214981 -0.0836909 0)
(0.154096 -0.00445306 0)
(0.135216 -0.0411568 0)
(0.163871 -0.0226403 0)
(0.168968 -0.0131638 0)
(0.172511 -0.0117792 0)
(0.17827 -0.0105887 0)
(0.18429 -0.00663617 0)
(0.188454 0.000771523 0)
(0.188718 0.0110001 0)
(0.183946 0.0232421 0)
(0.173526 0.036198 0)
(0.157453 0.048904 0)
(0.136215 0.0604325 0)
(0.110582 0.0702038 0)
(0.0814483 0.0777933 0)
(0.0497942 0.082971 0)
(0.0165996 0.0848614 0)
(0.00241495 -0.422782 0)
(0.0940585 -0.0999962 0)
(0.120326 0.00196476 0)
(0.116195 -0.0655245 0)
(0.167902 -0.0263578 0)
(0.170631 -0.0133041 0)
(0.172386 -0.0132518 0)
(0.17877 -0.0132803 0)
(0.186264 -0.00925221 0)
(0.192025 -0.000680552 0)
(0.193598 0.0116385 0)
(0.189568 0.0263174 0)
(0.179309 0.0417983 0)
(0.162928 0.0569085 0)
(0.14103 0.0705183 0)
(0.114503 0.0820229 0)
(0.0843308 0.0909246 0)
(0.0515587 0.0969962 0)
(0.01719 0.0992171 0)
(0.00509192 -0.0541532 0)
(0.0529572 -0.2371 0)
(0.115737 -0.290561 0)
(0.17311 -0.272993 0)
(0.224055 -0.2422 0)
(0.273336 -0.221485 0)
(0.324188 -0.212621 0)
(0.377155 -0.210506 0)
(0.431557 -0.210137 0)
(0.48664 -0.20826 0)
(0.541985 -0.203042 0)
(0.597304 -0.193165 0)
(0.652087 -0.177341 0)
(0.70549 -0.154033 0)
(0.756657 -0.12103 0)
(0.804509 -0.0755758 0)
(0.846807 -0.014264 0)
(0.880173 0.0663521 0)
(0.899866 0.168433 0)
(0.910463 0.295816 0)
(0.897396 0.461686 0)
(0.941497 0.658703 0)
(0.910073 1.1109 0)
(0.0109041 -0.0837998 0)
(0.0626612 -0.296618 0)
(0.122006 -0.349548 0)
(0.173747 -0.324672 0)
(0.220906 -0.291186 0)
(0.269476 -0.271964 0)
(0.321717 -0.265738 0)
(0.37703 -0.265716 0)
(0.434247 -0.266616 0)
(0.492731 -0.265536 0)
(0.552491 -0.261041 0)
(0.613345 -0.251696 0)
(0.67453 -0.235816 0)
(0.73554 -0.211654 0)
(0.797089 -0.176436 0)
(0.86017 -0.126941 0)
(0.923542 -0.0590325 0)
(0.981604 0.0271974 0)
(1.02971 0.134379 0)
(1.07317 0.262139 0)
(1.10137 0.417298 0)
(1.17192 0.581493 0)
(1.26041 0.839512 0)
(0.0169751 -0.121801 0)
(0.0716334 -0.35608 0)
(0.126783 -0.402533 0)
(0.172974 -0.370875 0)
(0.217367 -0.338049 0)
(0.266144 -0.323102 0)
(0.319961 -0.320945 0)
(0.377133 -0.323702 0)
(0.436214 -0.326612 0)
(0.496767 -0.327476 0)
(0.558803 -0.325071 0)
(0.621702 -0.316959 0)
(0.684674 -0.300788 0)
(0.750821 -0.276456 0)
(0.823898 -0.241508 0)
(0.906109 -0.19442 0)
(0.992265 -0.123887 0)
(1.07419 -0.0216182 0)
(1.14707 0.117639 0)
(1.20569 0.277118 0)
(1.25425 0.430724 0)
(1.31338 0.563105 0)
(1.40003 0.672399 0)
(0.0229823 -0.16724 0)
(0.0793625 -0.414638 0)
(0.129397 -0.450226 0)
(0.170564 -0.413637 0)
(0.213239 -0.384672 0)
(0.262311 -0.375668 0)
(0.316448 -0.377867 0)
(0.372931 -0.383205 0)
(0.430229 -0.387846 0)
(0.488057 -0.389878 0)
(0.546521 -0.387751 0)
(0.606802 -0.378188 0)
(0.671143 -0.362819 0)
(0.752724 -0.350972 0)
(0.854131 -0.336816 0)
(0.968504 -0.319115 0)
(1.08457 -0.27328 0)
(1.19222 -0.188581 0)
(1.27864 -0.0734085 0)
(1.3334 0.0672797 0)
(1.37052 0.221732 0)
(1.40862 0.385176 0)
(1.47442 0.526699 0)
(0.0291021 -0.219779 0)
(0.0854632 -0.471333 0)
(0.128106 -0.492801 0)
(0.164242 -0.453861 0)
(0.205129 -0.431114 0)
(0.252584 -0.427998 0)
(0.303406 -0.432865 0)
(0.35451 -0.438446 0)
(0.405673 -0.442317 0)
(0.458005 -0.4431 0)
(0.515444 -0.442145 0)
(0.58568 -0.440368 0)
(0.677159 -0.45174 0)
(0.810529 -0.490018 0)
(0.968062 -0.509154 0)
(1.11852 -0.492059 0)
(1.22822 -0.404207 0)
(1.30727 -0.259481 0)
(1.37046 -0.0206484 0)
(1.39963 0.169561 0)
(1.41922 0.294493 0)
(1.44114 0.393486 0)
(1.48268 0.478652 0)
(0.0352773 -0.279143 0)
(0.0903274 -0.521315 0)
(0.12095 -0.526713 0)
(0.151115 -0.489297 0)
(0.189242 -0.473797 0)
(0.233031 -0.47453 0)
(0.279078 -0.479458 0)
(0.32667 -0.484562 0)
(0.380914 -0.490688 0)
(0.446591 -0.500305 0)
(0.536722 -0.521874 0)
(0.668475 -0.561444 0)
(0.836286 -0.619062 0)
(1.06696 -0.703401 0)
(1.28754 -0.674197 0)
(1.42837 -0.569408 0)
(1.40163 -0.381794 0)
(1.26309 -0.209385 0)
(1.39315 -0.00753962 0)
(1.58086 0.216249 0)
(1.64433 0.353095 0)
(1.60925 0.421323 0)
(1.55261 0.466088 0)
(0.0442624 -0.347945 0)
(0.101231 -0.557196 0)
(0.112189 -0.547695 0)
(0.136417 -0.519994 0)
(0.175626 -0.513635 0)
(0.222849 -0.518232 0)
(0.277753 -0.528033 0)
(0.345688 -0.544223 0)
(0.442586 -0.572623 0)
(0.574586 -0.617854 0)
(0.760682 -0.692309 0)
(1.07401 -0.79253 0)
(1.31105 -0.853337 0)
(1.48534 -0.889119 0)
(1.51108 -0.684939 0)
(1.42283 -0.436756 0)
(1.19742 -0.165301 0)
(1.16848 -0.229278 0)
(1.36278 -0.405721 0)
(1.69645 -0.25692 0)
(2.07201 0.200609 0)
(2.18547 0.532385 0)
(2.05437 0.597236 0)
(0.0613624 -0.42776 0)
(0.131643 -0.590851 0)
(0.122027 -0.563768 0)
(0.148776 -0.557816 0)
(0.208275 -0.568296 0)
(0.284998 -0.586934 0)
(0.380742 -0.615892 0)
(0.516829 -0.665184 0)
(0.723321 -0.756456 0)
(0.931035 -0.832195 0)
(1.14667 -0.981652 0)
(1.31461 -0.990851 0)
(1.47588 -0.961366 0)
(1.56446 -0.879203 0)
(1.55216 -0.628145 0)
(1.37416 -0.254254 0)
(1.2191 -0.0968243 0)
(1.28238 -0.485958 0)
(1.37473 -0.644078 0)
(1.47517 -0.5515 0)
(1.70146 -0.191098 0)
(1.99577 0.328453 0)
(2.12787 0.681769 0)
(0.068433 -0.534303 0)
(0.175297 -0.653209 0)
(0.190499 -0.581616 0)
(0.244494 -0.616279 0)
(0.355152 -0.673177 0)
(0.480078 -0.714439 0)
(0.609799 -0.76323 0)
(0.736998 -0.850943 0)
(0.869013 -0.927995 0)
(1.02582 -0.978265 0)
(1.19631 -1.09111 0)
(1.35535 -1.14348 0)
(1.48994 -1.10408 0)
(1.57011 -0.933186 0)
(1.58014 -0.574691 0)
(1.45816 -0.0913493 0)
(1.3466 -0.127037 0)
(1.30355 -0.465159 0)
(1.27854 -0.601134 0)
(1.2382 -0.519819 0)
(1.26244 -0.225597 0)
(1.38329 0.232395 0)
(1.55517 0.567214 0)
(0.0101643 -0.701212 0)
(0.100151 -0.68177 0)
(0.23397 -0.628323 0)
(0.296544 -0.69003 0)
(0.356626 -0.757461 0)
(0.43525 -0.783231 0)
(0.529456 -0.845029 0)
(0.638044 -0.939549 0)
(0.757152 -1.05568 0)
(0.9034 -1.17645 0)
(1.05405 -1.28023 0)
(1.19173 -1.31957 0)
(1.30523 -1.2344 0)
(1.36565 -1.00334 0)
(1.39018 -0.568941 0)
(1.37786 -0.0112622 0)
(1.29535 -0.041625 0)
(1.20073 -0.379253 0)
(1.12532 -0.54059 0)
(1.05299 -0.467394 0)
(0.947551 -0.20569 0)
(0.899971 0.095923 0)
(1.04441 0.299782 0)
(-0.00914345 -0.685324 0)
(0.0334878 -0.708254 0)
(0.13319 -0.741415 0)
(0.222382 -0.778243 0)
(0.28855 -0.826105 0)
(0.352401 -0.882539 0)
(0.419227 -0.958235 0)
(0.5075 -1.06459 0)
(0.600642 -1.20349 0)
(0.725992 -1.32463 0)
(0.830013 -1.40407 0)
(0.90874 -1.43794 0)
(0.972965 -1.3118 0)
(0.990811 -1.02865 0)
(0.985188 -0.564088 0)
(0.996097 0.014547 0)
(1.02021 -0.0101828 0)
(0.982737 -0.334438 0)
(0.939799 -0.445051 0)
(0.853329 -0.32546 0)
(0.729597 -0.108435 0)
(0.749732 0.0261668 0)
(0.910488 0.0909479 0)
(0.0124065 -0.701569 0)
(0.0563628 -0.868381 0)
(0.116295 -0.838529 0)
(0.175014 -0.846221 0)
(0.226616 -0.88778 0)
(0.276028 -0.945295 0)
(0.322587 -1.02473 0)
(0.385408 -1.14159 0)
(0.435301 -1.29321 0)
(0.50787 -1.40277 0)
(0.547478 -1.46896 0)
(0.556386 -1.48619 0)
(0.5476 -1.31597 0)
(0.524988 -0.971388 0)
(0.47785 -0.445802 0)
(0.533849 -0.0249369 0)
(0.666337 -0.145789 0)
(0.708824 -0.322114 0)
(0.699693 -0.332782 0)
(0.612892 -0.219586 0)
(0.624274 -0.129455 0)
(0.7646 -0.105917 0)
(0.966619 -0.106565 0)
(0.0339456 -0.745004 0)
(0.0680669 -0.900623 0)
(0.0938472 -0.873892 0)
(0.134663 -0.887933 0)
(0.172629 -0.928483 0)
(0.204664 -0.982607 0)
(0.230517 -1.06118 0)
(0.256625 -1.17972 0)
(0.255639 -1.32457 0)
(0.261876 -1.42248 0)
(0.254221 -1.47692 0)
(0.207513 -1.45827 0)
(0.136105 -1.26157 0)
(0.0776156 -0.887027 0)
(0.0823772 -0.40572 0)
(0.264172 -0.260469 0)
(0.370457 -0.293544 0)
(0.417201 -0.300121 0)
(0.429038 -0.269461 0)
(0.475004 -0.262589 0)
(0.613783 -0.279503 0)
(0.799569 -0.313744 0)
(1.00978 -0.34648 0)
(0.0343107 -0.797458 0)
(0.0589803 -0.922107 0)
(0.072048 -0.90078 0)
(0.101618 -0.919637 0)
(0.126488 -0.955148 0)
(0.142252 -1.0011 0)
(0.14934 -1.06861 0)
(0.139442 -1.17193 0)
(0.0973535 -1.29606 0)
(0.0480091 -1.39105 0)
(-0.00556198 -1.42999 0)
(-0.0860305 -1.38322 0)
(-0.191284 -1.18864 0)
(-0.231046 -0.845474 0)
(-0.143944 -0.521621 0)
(-0.0311698 -0.419811 0)
(0.0615028 -0.348607 0)
(0.160634 -0.300574 0)
(0.302482 -0.377421 0)
(0.452946 -0.430416 0)
(0.618194 -0.46782 0)
(0.79517 -0.51531 0)
(0.992261 -0.570021 0)
(0.0270369 -0.843184 0)
(0.0458349 -0.932687 0)
(0.0543311 -0.921347 0)
(0.0748044 -0.940153 0)
(0.0888496 -0.968257 0)
(0.0937012 -1.00347 0)
(0.0883424 -1.05274 0)
(0.0584371 -1.1308 0)
(-0.00410826 -1.22951 0)
(-0.0876572 -1.31374 0)
(-0.185021 -1.34287 0)
(-0.299323 -1.28734 0)
(-0.392264 -1.10998 0)
(-0.405472 -0.836573 0)
(-0.32579 -0.607384 0)
(-0.247498 -0.527968 0)
(-0.072084 -0.477365 0)
(0.114341 -0.512263 0)
(0.284074 -0.56259 0)
(0.434566 -0.594279 0)
(0.588911 -0.633727 0)
(0.75059 -0.691907 0)
(0.930479 -0.766908 0)
(0.0189044 -0.87752 0)
(0.0334439 -0.938162 0)
(0.0398118 -0.935557 0)
(0.0527748 -0.951908 0)
(0.0599758 -0.973444 0)
(0.0598637 -0.998465 0)
(0.0504571 -1.02961 0)
(0.0202479 -1.08005 0)
(-0.0410785 -1.14947 0)
(-0.130862 -1.21122 0)
(-0.239954 -1.23113 0)
(-0.349439 -1.18646 0)
(-0.419208 -1.06402 0)
(-0.418149 -0.88267 0)
(-0.326994 -0.722357 0)
(-0.164724 -0.688734 0)
(-0.021139 -0.692238 0)
(0.128565 -0.69441 0)
(0.261078 -0.701737 0)
(0.397892 -0.737098 0)
(0.540413 -0.78663 0)
(0.689328 -0.854266 0)
(0.855315 -0.948469 0)
(0.0121208 -0.901281 0)
(0.0228502 -0.94272 0)
(0.0280067 -0.945266 0)
(0.0355858 -0.958478 0)
(0.0389111 -0.975007 0)
(0.0370564 -0.992702 0)
(0.0295064 -1.01114 0)
(0.00964585 -1.03893 0)
(-0.0343908 -1.08123 0)
(-0.102571 -1.12332 0)
(-0.182304 -1.14135 0)
(-0.255235 -1.11736 0)
(-0.294623 -1.05083 0)
(-0.271214 -0.967111 0)
(-0.188778 -0.892109 0)
(-0.0841203 -0.838542 0)
(0.0173632 -0.815536 0)
(0.11778 -0.80884 0)
(0.231804 -0.826669 0)
(0.352879 -0.869997 0)
(0.479673 -0.926034 0)
(0.614261 -1.00421 0)
(0.765795 -1.11877 0)
(0.00741839 -0.916372 0)
(0.0145849 -0.946657 0)
(0.0183101 -0.951223 0)
(0.0222408 -0.961756 0)
(0.0231231 -0.974734 0)
(0.0205492 -0.988357 0)
(0.015457 -1.00068 0)
(0.00533842 -1.01564 0)
(-0.0181024 -1.03957 0)
(-0.0574258 -1.06878 0)
(-0.104729 -1.0877 0)
(-0.146537 -1.08028 0)
(-0.166612 -1.042 0)
(-0.154284 -0.986876 0)
(-0.111134 -0.939866 0)
(-0.0494258 -0.912948 0)
(0.0210844 -0.899626 0)
(0.103648 -0.905053 0)
(0.198521 -0.935116 0)
(0.299493 -0.983528 0)
(0.406863 -1.04719 0)
(0.522538 -1.13491 0)
(0.651498 -1.26567 0)
(0.00430336 -0.9253 0)
(0.00835704 -0.949449 0)
(0.0103589 -0.954262 0)
(0.0116523 -0.962711 0)
(0.0107306 -0.973129 0)
(0.00736641 -0.984394 0)
(0.00261918 -0.994846 0)
(-0.00335005 -1.00521 0)
(-0.0143868 -1.01969 0)
(-0.0348883 -1.03882 0)
(-0.0632425 -1.0539 0)
(-0.0911341 -1.0538 0)
(-0.106965 -1.03564 0)
(-0.102192 -1.00707 0)
(-0.0770956 -0.980311 0)
(-0.0369363 -0.964875 0)
(0.0164701 -0.96548 0)
(0.0830064 -0.984462 0)
(0.15754 -1.02231 0)
(0.2383 -1.07656 0)
(0.325375 -1.14754 0)
(0.419322 -1.24123 0)
(0.519938 -1.37969 0)
(0.00218156 -0.929991 0)
(0.00359515 -0.950618 0)
(0.00384376 -0.954972 0)
(0.00313282 -0.961812 0)
(0.000745758 -0.97025 0)
(-0.00354197 -0.9797 0)
(-0.00924966 -0.989318 0)
(-0.0155016 -0.998667 0)
(-0.0233163 -1.00895 0)
(-0.0359397 -1.02103 0)
(-0.0541052 -1.03148 0)
(-0.0727694 -1.03388 0)
(-0.0840996 -1.02593 0)
(-0.0824386 -1.01299 0)
(-0.0663818 -1.00378 0)
(-0.0370552 -1.00426 0)
(0.00375783 -1.01734 0)
(0.0534036 -1.04518 0)
(0.109479 -1.0897 0)
(0.170985 -1.14986 0)
(0.237548 -1.22635 0)
(0.309651 -1.32391 0)
(0.383269 -1.46319 0)
(0.000711972 -0.931466 0)
(-1.6564e-05 -0.950237 0)
(-0.0014598 -0.953766 0)
(-0.00379976 -0.959381 0)
(-0.00741678 -0.966263 0)
(-0.0125128 -0.974112 0)
(-0.0190656 -0.982568 0)
(-0.0266615 -0.991203 0)
(-0.035153 -0.999829 0)
(-0.0454602 -1.00856 0)
(-0.0581727 -1.01651 0)
(-0.0708957 -1.02116 0)
(-0.078702 -1.02131 0)
(-0.0776157 -1.01993 0)
(-0.0665264 -1.02245 0)
(-0.046168 -1.03312 0)
(-0.0179657 -1.05455 0)
(0.0164031 -1.08913 0)
(0.0557703 -1.13888 0)
(0.0987585 -1.2039 0)
(0.145293 -1.28354 0)
(0.195926 -1.38366 0)
(0.245456 -1.52128 0)
(-0.000336204 -0.930686 0)
(-0.00283648 -0.948201 0)
(-0.00579433 -0.951032 0)
(-0.00947017 -0.955664 0)
(-0.0141498 -0.961363 0)
(-0.0199474 -0.967899 0)
(-0.0269438 -0.975072 0)
(-0.0351179 -0.982708 0)
(-0.0442282 -0.990545 0)
(-0.0540296 -0.998333 0)
(-0.0643404 -1.00574 0)
(-0.0740042 -1.01207 0)
(-0.0803702 -1.01732 0)
(-0.080969 -1.02357 0)
(-0.0750936 -1.03408 0)
(-0.0633583 -1.05163 0)
(-0.046661 -1.07868 0)
(-0.0258559 -1.11789 0)
(-0.00197107 -1.17131 0)
(0.0237494 -1.23922 0)
(0.0507505 -1.3208 0)
(0.0798628 -1.42142 0)
(0.106652 -1.55682 0)
(-0.00114007 -0.928157 0)
(-0.00510415 -0.944736 0)
(-0.00935388 -0.946993 0)
(-0.0141703 -0.950835 0)
(-0.0197943 -0.955622 0)
(-0.0262959 -0.961175 0)
(-0.0336973 -0.967339 0)
(-0.0420311 -0.97404 0)
(-0.0512347 -0.981196 0)
(-0.0609965 -0.98864 0)
(-0.0707899 -0.996261 0)
(-0.0797582 -1.00415 0)
(-0.0865598 -1.01283 0)
(-0.0899842 -1.02372 0)
(-0.0897035 -1.03889 0)
(-0.0861001 -1.06052 0)
(-0.0797357 -1.09094 0)
(-0.0713182 -1.13262 0)
(-0.0620133 -1.18756 0)
(-0.0531201 -1.25609 0)
(-0.0447998 -1.33779 0)
(-0.0370567 -1.43695 0)
(-0.0348872 -1.56878 0)
(-0.00178659 -0.924236 0)
(-0.00696723 -0.940042 0)
(-0.0123078 -0.941845 0)
(-0.0181089 -0.945033 0)
(-0.0245854 -0.94907 0)
(-0.0318037 -0.953837 0)
(-0.0397721 -0.959231 0)
(-0.0484845 -0.96519 0)
(-0.0579181 -0.971711 0)
(-0.0678967 -0.978839 0)
(-0.0779972 -0.986709 0)
(-0.0876245 -0.99561 0)
(-0.096127 -1.00615 0)
(-0.103001 -1.01946 0)
(-0.108152 -1.03706 0)
(-0.111902 -1.0607 0)
(-0.114819 -1.0924 0)
(-0.117737 -1.13439 0)
(-0.121954 -1.1885 0)
(-0.128845 -1.25515 0)
(-0.13874 -1.33393 0)
(-0.15221 -1.42875 0)
(-0.175554 -1.55308 0)
(-0.00232596 -0.919167 0)
(-0.00851054 -0.93432 0)
(-0.0147718 -0.935749 0)
(-0.0214197 -0.938379 0)
(-0.0286633 -0.94176 0)
(-0.0365677 -0.945823 0)
(-0.0451733 -0.95052 0)
(-0.0544802 -0.955835 0)
(-0.0644535 -0.961801 0)
(-0.0749892 -0.968536 0)
(-0.0858902 -0.976288 0)
(-0.096872 -0.98547 0)
(-0.107643 -0.996704 0)
(-0.118057 -1.01089 0)
(-0.128241 -1.02919 0)
(-0.138615 -1.05303 0)
(-0.149873 -1.0841 0)
(-0.163008 -1.12433 0)
(-0.179427 -1.1754 0)
(-0.20063 -1.23778 0)
(-0.2272 -1.31095 0)
(-0.260025 -1.39781 0)
(-0.30602 -1.51021 0)
(-0.00278241 -0.913152 0)
(-0.00977779 -0.927744 0)
(-0.0168147 -0.928847 0)
(-0.0241821 -0.930983 0)
(-0.0321067 -0.933764 0)
(-0.0406446 -0.937163 0)
(-0.0498675 -0.941168 0)
(-0.0598131 -0.945807 0)
(-0.0704951 -0.951149 0)
(-0.0818764 -0.957329 0)
(-0.0938889 -0.964618 0)
(-0.106471 -0.973443 0)
(-0.119607 -0.984394 0)
(-0.133404 -0.998215 0)
(-0.148162 -1.01582 0)
(-0.164429 -1.03831 0)
(-0.183032 -1.06709 0)
(-0.205118 -1.10375 0)
(-0.232225 -1.14978 0)
(-0.266047 -1.20567 0)
(-0.30755 -1.27079 0)
(-0.358067 -1.347 0)
(-0.424493 -1.44466 0)
(-0.00316458 -0.906362 0)
(-0.0107902 -0.920466 0)
(-0.0184696 -0.92127 0)
(-0.0264357 -0.922949 0)
(-0.0349464 -0.925156 0)
(-0.0440542 -0.927903 0)
(-0.0538559 -0.931195 0)
(-0.064426 -0.935081 0)
(-0.0758351 -0.939645 0)
(-0.0881306 -0.945037 0)
(-0.101349 -0.951509 0)
(-0.115568 -0.959442 0)
(-0.130954 -0.969343 0)
(-0.147796 -0.981825 0)
(-0.166543 -0.997597 0)
(-0.187858 -1.01751 0)
(-0.212676 -1.04262 0)
(-0.242272 -1.0742 0)
(-0.278314 -1.11345 0)
(-0.322719 -1.1608 0)
(-0.377007 -1.21545 0)
(-0.443316 -1.27806 0)
(-0.528824 -1.35714 0)
(-0.00347204 -0.898963 0)
(-0.0115594 -0.912626 0)
(-0.0197468 -0.913145 0)
(-0.028192 -0.914383 0)
(-0.0371796 -0.916024 0)
(-0.0467705 -0.918105 0)
(-0.0570824 -0.920641 0)
(-0.0682247 -0.923687 0)
(-0.080309 -0.927327 0)
(-0.0934534 -0.931697 0)
(-0.107791 -0.937016 0)
(-0.123505 -0.943598 0)
(-0.140871 -0.951849 0)
(-0.160289 -0.962245 0)
(-0.182321 -0.97532 0)
(-0.207714 -0.991683 0)
(-0.237482 -1.01208 0)
(-0.272982 -1.03743 0)
(-0.315947 -1.06859 0)
(-0.368442 -1.10579 0)
(-0.432442 -1.14794 0)
(-0.510638 -1.1943 0)
(-0.609988 -1.25023 0)
(-0.00370243 -0.891117 0)
(-0.012096 -0.904362 0)
(-0.0206494 -0.904605 0)
(-0.0294483 -0.905405 0)
(-0.0387878 -0.906478 0)
(-0.0487481 -0.907869 0)
(-0.0594578 -0.909597 0)
(-0.0710603 -0.911715 0)
(-0.0837025 -0.914293 0)
(-0.0975539 -0.917443 0)
(-0.112815 -0.921331 0)
(-0.129748 -0.926196 0)
(-0.148702 -0.932339 0)
(-0.17014 -0.940107 0)
(-0.194676 -0.949864 0)
(-0.223112 -0.961998 0)
(-0.256497 -0.976973 0)
(-0.296197 -0.99534 0)
(-0.34393 -1.0176 0)
(-0.401785 -1.0437 0)
(-0.471967 -1.07226 0)
(-0.55723 -1.10127 0)
(-0.663264 -1.13289 0)
(-0.00385552 -0.882978 0)
(-0.0124123 -0.895816 0)
(-0.0211809 -0.895786 0)
(-0.0301988 -0.896145 0)
(-0.0397507 -0.896645 0)
(-0.0499429 -0.897324 0)
(-0.0609086 -0.8982 0)
(-0.0728172 -0.899311 0)
(-0.0858431 -0.900709 0)
(-0.100193 -0.902472 0)
(-0.116112 -0.904715 0)
(-0.13391 -0.907598 0)
(-0.153978 -0.911319 0)
(-0.176815 -0.916093 0)
(-0.203049 -0.922132 0)
(-0.233479 -0.929628 0)
(-0.269142 -0.938786 0)
(-0.311357 -0.949833 0)
(-0.361731 -0.962911 0)
(-0.422227 -0.97768 0)
(-0.495048 -0.992513 0)
(-0.58263 -1.00451 0)
(-0.688996 -1.01324 0)
(-0.00393322 -0.874691 0)
(-0.0125197 -0.887131 0)
(-0.0213472 -0.886831 0)
(-0.0304387 -0.886746 0)
(-0.0400523 -0.88667 0)
(-0.0503194 -0.88662 0)
(-0.0613753 -0.886611 0)
(-0.0734063 -0.886661 0)
(-0.0866042 -0.886798 0)
(-0.101197 -0.887064 0)
(-0.117459 -0.887518 0)
(-0.135723 -0.888244 0)
(-0.156399 -0.889346 0)
(-0.179991 -0.890925 0)
(-0.207114 -0.89305 0)
(-0.238527 -0.895742 0)
(-0.275201 -0.898983 0)
(-0.318349 -0.902725 0)
(-0.369411 -0.90681 0)
(-0.430104 -0.910643 0)
(-0.502412 -0.912469 0)
(-0.588239 -0.908933 0)
(-0.689937 -0.89784 0)
(-0.00393588 -0.866393 0)
(-0.0124226 -0.878453 0)
(-0.0211545 -0.877889 0)
(-0.0301663 -0.877361 0)
(-0.0396848 -0.87671 0)
(-0.049857 -0.875927 0)
(-0.0608202 -0.875018 0)
(-0.072768 -0.873977 0)
(-0.085902 -0.872807 0)
(-0.100461 -0.871513 0)
(-0.116727 -0.870103 0)
(-0.135041 -0.868592 0)
(-0.155809 -0.866996 0)
(-0.179521 -0.865316 0)
(-0.206757 -0.863507 0)
(-0.238212 -0.861441 0)
(-0.274747 -0.858916 0)
(-0.317432 -0.855667 0)
(-0.3675 -0.851309 0)
(-0.426364 -0.845071 0)
(-0.495666 -0.835188 0)
(-0.57673 -0.818241 0)
(-0.670519 -0.791074 0)
(-0.00385579 -0.858215 0)
(-0.0121107 -0.869921 0)
(-0.0206011 -0.869103 0)
(-0.029377 -0.868139 0)
(-0.0386446 -0.866923 0)
(-0.0485493 -0.865418 0)
(-0.0592319 -0.863615 0)
(-0.0708834 -0.861485 0)
(-0.0837077 -0.859004 0)
(-0.0979433 -0.85614 0)
(-0.113871 -0.852855 0)
(-0.131822 -0.849104 0)
(-0.152185 -0.844829 0)
(-0.175418 -0.839943 0)
(-0.202054 -0.83431 0)
(-0.232706 -0.827696 0)
(-0.268109 -0.819755 0)
(-0.309157 -0.810052 0)
(-0.356865 -0.798044 0)
(-0.412344 -0.782879 0)
(-0.47684 -0.762879 0)
(-0.551151 -0.734831 0)
(-0.635275 -0.695245 0)
(-0.00367133 -0.850308 0)
(-0.0115512 -0.861678 0)
(-0.0196703 -0.860619 0)
(-0.0280545 -0.859232 0)
(-0.0369218 -0.857472 0)
(-0.0463917 -0.85527 0)
(-0.056611 -0.8526 0)
(-0.0677589 -0.849411 0)
(-0.0800338 -0.84565 0)
(-0.0936659 -0.841252 0)
(-0.108925 -0.836139 0)
(-0.126122 -0.830216 0)
(-0.145618 -0.823361 0)
(-0.167828 -0.815421 0)
(-0.193224 -0.806184 0)
(-0.222339 -0.795346 0)
(-0.255777 -0.782467 0)
(-0.29425 -0.766989 0)
(-0.338556 -0.748264 0)
(-0.389533 -0.725431 0)
(-0.448059 -0.696974 0)
(-0.514511 -0.660047 0)
(-0.588287 -0.61123 0)
(-0.00334945 -0.842943 0)
(-0.0106928 -0.853938 0)
(-0.0183298 -0.852651 0)
(-0.0261661 -0.850865 0)
(-0.0344878 -0.848586 0)
(-0.043363 -0.845722 0)
(-0.0529474 -0.842229 0)
(-0.0634002 -0.838034 0)
(-0.0749073 -0.833056 0)
(-0.0876812 -0.8272 0)
(-0.10197 -0.820353 0)
(-0.11806 -0.812376 0)
(-0.136276 -0.803101 0)
(-0.156985 -0.792321 0)
(-0.180594 -0.779769 0)
(-0.207555 -0.765097 0)
(-0.238357 -0.74782 0)
(-0.273538 -0.727311 0)
(-0.313692 -0.70285 0)
(-0.359428 -0.67361 0)
(-0.411322 -0.638291 0)
(-0.469436 -0.594485 0)
(-0.532881 -0.539049 0)
(-0.00286633 -0.836427 0)
(-0.00949415 -0.846898 0)
(-0.0165516 -0.845396 0)
(-0.0236842 -0.843245 0)
(-0.0313106 -0.840483 0)
(-0.0394319 -0.837004 0)
(-0.048215 -0.832748 0)
(-0.0577954 -0.827623 0)
(-0.0683402 -0.821526 0)
(-0.0800359 -0.814333 0)
(-0.0930994 -0.805896 0)
(-0.107782 -0.796042 0)
(-0.124367 -0.784564 0)
(-0.143173 -0.771214 0)
(-0.164543 -0.755687 0)
(-0.188851 -0.737607 0)
(-0.216487 -0.716482 0)
(-0.247849 -0.691667 0)
(-0.283346 -0.662411 0)
(-0.3234 -0.627922 0)
(-0.368374 -0.587138 0)
(-0.418136 -0.538119 0)
(-0.471679 -0.478098 0)
(-0.00224166 -0.830581 0)
(-0.00798131 -0.840247 0)
(-0.0143683 -0.838551 0)
(-0.0206568 -0.836094 0)
(-0.0274358 -0.832901 0)
(-0.0346415 -0.828875 0)
(-0.0424524 -0.823937 0)
(-0.0509838 -0.817987 0)
(-0.0603812 -0.810903 0)
(-0.0708019 -0.80254 0)
(-0.0824249 -0.792724 0)
(-0.0954564 -0.78125 0)
(-0.110132 -0.767876 0)
(-0.126713 -0.752321 0)
(-0.145482 -0.73425 0)
(-0.166741 -0.713267 0)
(-0.190801 -0.688889 0)
(-0.21796 -0.660498 0)
(-0.248484 -0.627342 0)
(-0.282636 -0.588655 0)
(-0.320634 -0.543597 0)
(-0.362266 -0.490689 0)
(-0.406524 -0.427562 0)
(-0.00155469 -0.825063 0)
(-0.00628383 -0.833553 0)
(-0.0119113 -0.831691 0)
(-0.0172532 -0.828993 0)
(-0.0230502 -0.825419 0)
(-0.0291953 -0.820907 0)
(-0.0358675 -0.815359 0)
(-0.0431718 -0.808673 0)
(-0.0512344 -0.800719 0)
(-0.060187 -0.791342 0)
(-0.0701734 -0.780351 0)
(-0.0813536 -0.767521 0)
(-0.0939066 -0.752586 0)
(-0.10803 -0.735239 0)
(-0.123938 -0.71512 0)
(-0.14186 -0.691818 0)
(-0.162035 -0.664854 0)
(-0.184695 -0.633654 0)
(-0.210026 -0.597502 0)
(-0.238184 -0.555642 0)
(-0.269286 -0.507388 0)
(-0.303106 -0.451687 0)
(-0.33876 -0.386565 0)
(-0.000906497 -0.821867 0)
(-0.00456451 -0.828774 0)
(-0.00931821 -0.826779 0)
(-0.0136409 -0.82389 0)
(-0.0183408 -0.819986 0)
(-0.0233112 -0.815029 0)
(-0.0287057 -0.808918 0)
(-0.0346219 -0.801545 0)
(-0.0411692 -0.792779 0)
(-0.0484602 -0.782457 0)
(-0.0566127 -0.770384 0)
(-0.065751 -0.756325 0)
(-0.0760071 -0.740007 0)
(-0.0875184 -0.72111 0)
(-0.100426 -0.699262 0)
(-0.114877 -0.674041 0)
(-0.131027 -0.644969 0)
(-0.149038 -0.611505 0)
(-0.169054 -0.573006 0)
(-0.191188 -0.528753 0)
(-0.215499 -0.478159 0)
(-0.241792 -0.420524 0)
(-0.269335 -0.354241 0)
(-0.000363539 -0.824607 0)
(-0.00291439 -0.82959 0)
(-0.00661205 -0.827562 0)
(-0.00983862 -0.824577 0)