/*--------------------------------*- C++ -*----------------------------------*\
| =========                 |                                                 |
| \\      /  F ield         | OpenFOAM: The Open Source CFD Toolbox           |
|  \\    /   O peration     | Version:  2206                                  |
|   \\  /    A nd           | Website:  www.openfoam.com                      |
|    \\/     M anipulation  |                                                 |
\*---------------------------------------------------------------------------*/
FoamFile
{
    version     2.0;
    format      ascii;
    arch        "LSB;label=32;scalar=64";
    class       volScalarField;
    location    "0.95";
    object      p;
}
// * * * * * * * * * * * * * * * * * * * * * * * * * * * * * * * * * * * * * //

dimensions      [1 -1 -2 0 0 0 0];

internalField   nonuniform List<scalar> 
2268
(
667.804
667.899
668.266
668.79
669.395
670.036
670.811
671.896
673.386
675.265
677.49
680.021
682.827
685.877
689.128
692.511
695.944
699.222
702.149
704.488
706.734
708.987
710.471
608.758
608.813
609.154
609.647
610.214
610.817
611.57
612.657
614.14
616.023
618.269
620.835
623.678
626.766
630.063
633.517
637.03
640.405
643.421
645.309
647.756
650.104
651.928
549.474
549.518
549.804
550.245
550.736
551.253
551.944
553.056
554.601
556.537
558.806
561.394
564.267
567.396
570.753
574.295
577.947
581.569
584.965
587.956
590.813
593.128
595.006
489.957
489.978
490.158
490.5
490.913
491.426
492.022
493.171
494.769
496.794
499.077
501.695
504.611
507.808
511.273
514.983
518.895
522.927
526.944
530.763
534.278
537.185
539.193
430.125
429.956
429.829
429.896
430.333
431.054
431.957
433.187
434.779
436.741
439.103
441.748
444.702
447.975
451.572
455.504
459.767
464.321
469.061
473.796
478.248
481.94
484.502
369.94
369.368
368.5
368.137
368.728
370.016
371.546
373.148
374.806
376.713
378.978
381.576
384.526
387.856
391.571
395.722
400.369
405.531
411.151
417.046
422.841
427.905
431.526
309.571
308.502
306.732
305.86
306.783
308.805
310.976
313.041
314.85
316.613
318.689
321.148
324.033
327.399
331.182
335.498
340.516
346.34
353.005
360.398
368.103
375.314
381.138
250.055
248.533
246.15
244.812
246.159
248.578
250.807
252.805
254.66
256.365
258.23
260.488
263.116
266.546
270.278
274.593
279.879
286.323
294.125
303.416
313.871
324.582
334.25
788.349
784.069
831.602
740.842
576.929
503.41
547.176
614.194
648.152
635.087
628.274
650.788
682.627
728.674
774.21
785.853
787.821
816.251
839.104
766.94
756.674
786.578
689.28
501.944
396.831
446.547
540.963
589.346
586.759
578.909
590.932
617.784
670.119
719.952
729.345
723.884
749.971
779.942
743.151
739.596
724.478
627.993
409.322
264.497
340.828
475.528
537.43
548.159
540.545
539.646
567.268
622.432
670.256
677.27
667.994
682.417
720.361
715.971
709.815
658.397
543.454
309.971
159.369
269.743
422.94
479.525
498.639
496.911
496.603
522.444
573.166
615.827
622.321
616.131
624.043
662.481
691.875
640.84
596.925
460.997
221.553
88.8967
214.173
378.957
424.686
446.58
448.061
453.645
477.235
516.697
550.526
564.153
560.494
573.215
607.517
667.141
522.08
537.144
420.004
219.799
107.496
178.106
329.859
377.847
392.221
398.656
410.422
428.621
454.687
478.574
502.137
504.013
518.203
552.934
642.164
433.765
475.65
418.879
290.517
178.109
155.099
258.794
335.152
351.294
358.525
370.903
379.675
392.487
407.932
434.966
448.829
460.481
497.195
620.913
384.005
402.504
442.244
380.54
245.119
131.265
180.927
287.909
327.368
330.775
337.552
330.212
325.045
332.96
368.153
390.67
408.217
444.497
157.801
156.304
154.175
153.163
153.769
155.434
156.889
158.037
159.456
161.192
163.119
165.42
168.2
171.292
174.845
178.739
184.216
191.416
200.992
214.224
232.488
257.253
284.207
51.8239
52.3135
51.5453
48.773
47.3199
47.7807
49.0931
49.5286
49.575
50.5069
51.8065
52.6979
52.2508
51.3394
52.525
55.0889
58.838
62.5983
66.9667
75.8001
96.2315
131.034
179.994
5.51229
5.44626
5.30049
5.14976
5.34647
6.15556
6.87844
6.88614
6.33117
5.86179
6.38739
7.55424
8.8087
9.56385
9.59575
9.8885
11.0868
12.8932
14.5909
17.5045
24.0278
36.7612
60.5276
4.94241
4.92667
4.9167
4.90027
4.7902
4.60347
4.42992
4.29192
4.10722
3.82671
3.39118
3.05496
3.44434
4.56866
5.76325
6.66654
7.56944
8.37161
8.43761
7.32741
5.9005
4.21374
8.93775
4.36328
4.37401
4.38348
4.34253
4.23348
4.11541
3.97827
3.76839
3.51817
3.31617
3.17733
3.09306
3.13286
3.31301
3.6514
4.22354
5.11986
6.2053
7.01329
7.08472
7.12473
10.2428
20.7863
3.73989
3.73919
3.73578
3.68849
3.55424
3.37348
3.1847
2.97275
2.70881
2.46062
2.26217
2.14877
2.11971
2.16643
2.36899
2.90922
4.04958
5.9086
8.70773
14.0135
20.8426
26.0216
32.8421
3.012
2.99123
2.95386
2.87416
2.72678
2.53326
2.34135
2.13929
1.91304
1.70671
1.5202
1.39112
1.32217
1.33088
1.46047
1.70735
2.10032
3.15704
7.22253
17.4217
30.4641
40.3246
45.8385
2.2904
2.26174
2.20912
2.12017
1.98733
1.82835
1.66362
1.4896
1.32933
1.17365
1.02623
0.914621
0.854256
0.865329
0.876542
0.482126
-1.12049
-4.53063
-8.98141
-5.9005
4.19841
13.4947
20.8712
1.6705
1.64472
1.5971
1.52129
1.41658
1.29272
1.16374
1.03685
0.911165
0.7786
0.653285
0.550187
0.463697
0.355738
0.169177
-0.0119731
0.064234
0.536931
-12.7429
-20.7694
-20.4221
-17.5503
-11.7266
1.15521
1.13518
1.09888
1.04197
0.964711
0.873075
0.772728
0.668718
0.560121
0.442301
0.321462
0.20213
0.075319
-0.0419542
-0.0574588
0.0455018
0.0868594
-0.163222
3.68831
11.5073
2.49116
-8.74253
-13.516
0.713102
0.697692
0.67074
0.628752
0.572952
0.505095
0.42786
0.343928
0.254518
0.158844
0.0595339
-0.0380829
-0.129046
-0.190726
-0.205738
-0.229465
-0.289161
-0.283742
-0.296572
0.709052
4.02962
5.8299
6.53545
0.321402
0.309029
0.289153
0.258014
0.217062
0.167179
0.109903
0.0469351
-0.0201707
-0.0905067
-0.162297
-0.232737
-0.298811
-0.353724
-0.395682
-0.449219
-0.520005
-0.585728
-0.582505
-0.291776
0.920948
3.25641
5.98226
-0.0306205
-0.0437227
-0.0570744
-0.0799486
-0.110134
-0.146694
-0.188605
-0.23475
-0.284046
-0.3358
-0.389329
-0.44393
-0.498738
-0.554284
-0.609505
-0.670378
-0.743624
-0.82687
-0.901867
-0.942693
-0.937833
-0.89645
-0.876422
-0.355012
-0.365416
-0.375042
-0.392309
-0.414795
-0.441831
-0.472772
-0.506869
-0.543461
-0.582329
-0.623447
-0.66656
-0.711842
-0.759503
-0.804219
-0.843841
-0.883402
-0.921067
-0.947581
-0.955067
-0.952494
-0.957211
-0.986789
-0.65783
-0.663626
-0.671806
-0.685056
-0.702071
-0.722341
-0.745427
-0.770766
-0.797915
-0.826867
-0.857787
-0.891035
-0.927267
-0.963811
-0.993048
-1.01256
-1.02436
-1.03255
-1.04085
-1.0499
-1.05836
-1.06952
-1.09744
-0.944201
-0.945471
-0.952572
-0.962756
-0.975814
-0.991144
-1.00852
-1.02741
-1.04758
-1.06918
-1.09252
-1.11868
-1.14804
-1.175
-1.19565
-1.20849
-1.21331
-1.21418
-1.21769
-1.22469
-1.23169
-1.2397
-1.25912
-1.21667
-1.21613
-1.22192
-1.22963
-1.23971
-1.25145
-1.26475
-1.27916
-1.29454
-1.31109
-1.32945
-1.35094
-1.37415
-1.39491
-1.41201
-1.42384
-1.42975
-1.43222
-1.43517
-1.43968
-1.44381
-1.44886
-1.46523
-1.47866
-1.4788
-1.48313
-1.48898
-1.4968
-1.50601
-1.51656
-1.52808
-1.54047
-1.55392
-1.56911
-1.58677
-1.60506
-1.62244
-1.63804
-1.65026
-1.65862
-1.66432
-1.6696
-1.67519
-1.6792
-1.68374
-1.70469
-1.73404
-1.73504
-1.73822
-1.7428
-1.74898
-1.75645
-1.76522
-1.775
-1.78572
-1.79745
-1.81071
-1.82559
-1.84125
-1.85715
-1.87244
-1.88615
-1.89794
-1.90822
-1.91834
-1.92826
-1.93513
-1.9439
-1.97921
-1.98458
-1.98583
-1.9883
-1.99214
-1.99726
-2.0037
-2.01145
-2.02039
-2.03045
-2.04167
-2.05429
-2.06834
-2.0836
-2.09969
-2.11613
-2.13247
-2.14838
-2.16403
-2.18045
-2.19689
-2.20943
-2.22583
-2.27439
-2.23016
-2.23153
-2.2337
-2.23728
-2.24199
-2.2481
-2.25561
-2.2645
-2.27478
-2.28647
-2.29969
-2.31453
-2.33094
-2.3487
-2.36764
-2.38757
-2.40827
-2.42987
-2.45342
-2.47806
-2.49961
-2.52616
-2.58046
-2.47007
-2.47155
-2.47383
-2.4776
-2.48255
-2.48902
-2.497
-2.50657
-2.51778
-2.5307
-2.54541
-2.56206
-2.58067
-2.6012
-2.62371
-2.64826
-2.6748
-2.70351
-2.73566
-2.77125
-2.80767
-2.8531
-2.92464
-2.70319
-2.70481
-2.7075
-2.71182
-2.71753
-2.72492
-2.73399
-2.74487
-2.75763
-2.77239
-2.78926
-2.80841
-2.82996
-2.85404
-2.88085
-2.91071
-2.94379
-2.98036
-3.02183
-3.06943
-3.12284
-3.1894
-3.28238
-2.92833
-2.9302
-2.93347
-2.93855
-2.94529
-2.95393
-2.96447
-2.97705
-2.9918
-3.00882
-3.02829
-3.0504
-3.07534
-3.10336
-3.13476
-3.17007
-3.20965
-3.25385
-3.30395
-3.36205
-3.42949
-3.51127
-3.61478
-3.14435
-3.1469
-3.15072
-3.15655
-3.16436
-3.17429
-3.18639
-3.20078
-3.2176
-3.237
-3.25918
-3.28434
-3.31275
-3.34471
-3.38062
-3.42104
-3.46658
-3.5177
-3.5754
-3.64214
-3.72062
-3.81459
-3.92796
-3.35084
-3.35425
-3.35844
-3.36494
-3.37368
-3.38475
-3.39821
-3.41422
-3.43291
-3.45446
-3.47908
-3.50702
-3.53856
-3.57407
-3.61397
-3.65883
-3.70941
-3.76635
-3.83036
-3.90364
-3.98971
-4.09177
-4.21153
-3.54773
-3.5517
-3.5562
-3.56321
-3.57266
-3.58458
-3.59909
-3.61633
-3.63646
-3.65967
-3.68619
-3.71629
-3.75029
-3.78858
-3.83161
-3.87996
-3.9344
-3.99577
-4.06476
-4.1429
-4.23389
-4.34162
-4.46594
-3.73492
-3.73915
-3.74377
-3.75111
-3.76099
-3.77344
-3.78859
-3.80659
-3.82761
-3.85185
-3.87957
-3.91105
-3.94663
-3.98672
-4.03181
-4.08249
-4.13953
-4.20389
-4.27654
-4.35879
-4.4539
-4.56774
-4.70188
-3.91241
-3.91665
-3.92127
-3.92873
-3.93875
-3.95135
-3.9667
-3.98493
-4.00623
-4.03079
-4.05889
-4.09081
-4.12691
-4.16762
-4.21344
-4.26499
-4.32304
-4.38856
-4.46278
-4.54698
-4.64335
-4.75765
-4.8936
-4.08046
-4.08452
-4.08905
-4.09641
-4.10626
-4.11867
-4.13377
-4.15171
-4.17266
-4.19683
-4.22446
-4.25585
-4.29134
-4.33136
-4.37639
-4.42706
-4.4841
-4.54843
-4.62125
-4.70397
-4.7981
-4.90798
-5.03845
-4.23963
-4.24333
-4.24768
-4.25473
-4.26416
-4.27604
-4.2905
-4.30766
-4.32769
-4.35078
-4.37715
-4.40707
-4.44087
-4.47891
-4.52166
-4.56967
-4.62361
-4.68429
-4.75274
-4.83036
-4.91851
-5.0199
-5.13912
-4.39068
-4.3939
-4.39797
-4.40454
-4.41331
-4.42438
-4.43785
-4.45382
-4.47244
-4.49387
-4.5183
-4.54596
-4.57713
-4.61211
-4.6513
-4.69515
-4.7442
-4.79914
-4.86076
-4.93014
-5.00854
-5.09726
-5.19997
-4.53456
-4.53721
-4.5409
-4.54685
-4.5548
-4.56483
-4.57704
-4.59151
-4.60834
-4.62766
-4.64964
-4.67446
-4.70232
-4.73347
-4.7682
-4.80685
-4.84983
-4.89761
-4.95079
-5.01001
-5.0763
-5.14996
-5.23413
-4.6723
-4.67433
-4.67758
-4.68282
-4.68982
-4.69867
-4.70944
-4.72218
-4.73697
-4.75392
-4.77314
-4.79475
-4.81891
-4.84579
-4.8756
-4.90855
-4.94492
-4.985
-5.02916
-5.07773
-5.1314
-5.18995
-5.25597
-4.80496
-4.80639
-4.80914
-4.81362
-4.81961
-4.8272
-4.83643
-4.84734
-4.85998
-4.87443
-4.89074
-4.90902
-4.92936
-4.95187
-4.97666
-5.00388
-5.03368
-5.06621
-5.10166
-5.14015
-5.18209
-5.22707
-5.27685
-4.9336
-4.93445
-4.93669
-4.94041
-4.94537
-4.95168
-4.95937
-4.96843
-4.97892
-4.99086
-5.00431
-5.01931
-5.03591
-5.05419
-5.07419
-5.09599
-5.11965
-5.14525
-5.17285
-5.20246
-5.23425
-5.26788
-5.30426
-5.05917
-5.0595
-5.06124
-5.06422
-5.0682
-5.07327
-5.07945
-5.08673
-5.09513
-5.10468
-5.11539
-5.12729
-5.14041
-5.15476
-5.17037
-5.18726
-5.20545
-5.22496
-5.2458
-5.26792
-5.29136
-5.31589
-5.34184
-5.18257
-5.18245
-5.18374
-5.18603
-5.18908
-5.19299
-5.19775
-5.20336
-5.20983
-5.21715
-5.22534
-5.23441
-5.24435
-5.25518
-5.26689
-5.27947
-5.29294
-5.30726
-5.32244
-5.3384
-5.35514
-5.37249
-5.39054
-5.30445
-5.30398
-5.30486
-5.30652
-5.30874
-5.31158
-5.31504
-5.31911
-5.32379
-5.32909
-5.335
-5.34152
-5.34864
-5.35635
-5.36465
-5.37353
-5.38296
-5.39292
-5.4034
-5.41435
-5.42573
-5.43744
-5.44949
-5.42581
-5.42511
-5.42567
-5.42678
-5.42826
-5.43015
-5.43246
-5.43516
-5.43828
-5.44179
-5.44569
-5.44998
-5.45466
-5.4597
-5.4651
-5.47084
-5.47691
-5.48328
-5.48994
-5.49686
-5.50399
-5.51128
-5.5187
-5.54609
-5.54514
-5.5454
-5.54604
-5.54686
-5.54788
-5.5491
-5.55055
-5.55222
-5.55409
-5.55617
-5.55846
-5.56094
-5.56361
-5.56645
-5.56947
-5.57264
-5.57596
-5.57941
-5.58299
-5.58668
-5.59045
-5.59435
-5.67035
-5.67023
-5.67045
-5.67066
-5.67093
-5.67128
-5.67171
-5.67221
-5.67278
-5.67341
-5.67411
-5.67486
-5.67567
-5.67652
-5.67741
-5.67834
-5.67929
-5.68026
-5.68124
-5.68222
-5.68318
-5.68409
-5.68493
363.671
477.684
502.16
501.97
289.408
410.076
429.51
393.146
142.995
290.072
294.85
189.938
53.4734
161.715
133.374
41.9514
44.5373
99.5835
51.2688
9.00515
57.015
82.2195
22.028
3.7343
58.0099
60.6005
8.3636
2.44508
35.4574
37.6693
8.3795
1.44492
5.51839
16.5994
5.76074
-0.419269
-5.96156
6.08842
4.22281
-0.281396
9.29253
13.7442
11.8431
0.121937
9.89589
8.45179
-0.35062
-0.0435338
-0.829265
-1.20423
-0.717565
-0.179987
-1.07483
-1.14465
-0.85671
-0.411493
-1.1974
-1.26754
-1.04169
-0.694142
-1.33213
-1.40066
-1.24346
-1.11415
-1.52853
-1.55659
-1.49364
-1.73335
-1.77692
-1.73274
-1.79343
-2.50669
-2.08742
-2.06335
-2.1691
-2.98695
-2.40684
-2.48393
-2.64849
-3.28961
-2.70234
-2.75709
-2.93098
-3.46994
-3.07593
-3.07711
-3.16983
-3.65794
-3.49019
-3.46485
-3.49676
-3.90324
-3.84667
-3.88605
-3.91051
-4.21952
-4.19103
-4.31157
-4.35621
-4.59138
-4.49656
-4.69831
-4.80454
-5.02561
-4.78386
-5.1159
-5.30696
-5.50829
-5.04999
-5.54693
-5.82939
-6.00461
-5.25753
-5.92178
-6.32359
-6.4951
-5.39216
-6.14864
-6.67935
-6.91608
-5.45815
-6.1838
-6.76985
-7.10721
-5.46203
-6.08102
-6.65427
-7.01347
-5.43612
-5.91766
-6.418
-6.74569
-5.40707
-5.75505
-6.14572
-6.42977
-5.3884
-5.6274
-5.90439
-6.12259
-5.38568
-5.54502
-5.72765
-5.87639
-5.40022
-5.50488
-5.61974
-5.71338
-5.43118
-5.4991
-5.56918
-5.62514
-5.47657
-5.51953
-5.56099
-5.59292
-5.53515
-5.5606
-5.58362
-5.60056
-5.60326
-5.61607
-5.62701
-5.63473
-5.68646
-5.68883
-5.69017
-5.69045
485.026
297.646
310.372
450.868
462.334
301.69
85.9514
90.971
224.189
290.346
300.802
282.273
241.484
200.256
201.006
255.307
296.448
335.985
369.277
316.089
218.507
222.305
326.446
315.249
198.515
72.1634
78.5158
165.823
197.595
175.495
136.757
67.6233
42.537
64.0585
108.501
164.092
236.784
282.137
99.1101
58.3955
67.8744
123.8
142.348
100.178
50.0835
56.9749
92.4767
76.0232
40.1464
25.7356
14.4029
18.684
32.9798
61.1749
83.6931
142.604
204.159
13.1797
3.80378
3.70914
11.2232
21.1925
31.0722
32.6663
31.251
39.5491
13.5091
0.58409
3.08318
4.4105
7.73316
20.3359
47.0029
64.6251
68.5941
123.171
2.28292
0.225933
-0.342147
-0.0877567
0.470932
0.73201
0.439416
2.50526
2.04647
-0.258537
-0.341624
0.100795
0.071346
0.814397
7.07025
36.3557
52.9781
38.1393
50.0664
0.0617657
-0.943482
-1.01858
-0.568483
0.00744143
0.47823
0.727779
0.577955
0.126174
-0.157106
-0.181923
-0.601903
-1.30982
-1.49542
-0.409059
22.8647
41.1573
31.6176
24.8068
-0.482402
-1.42976
-1.36761
-0.73523
-0.0769862
0.419808
0.677284
0.666029
0.489707
0.170997
-0.251307
-0.775402
-1.36524
-1.67988
-1.72493
7.77687
29.236
24.2759
20.2141
-0.67299
-1.42497
-1.39301
-0.802357
-0.171224
0.29985
0.53774
0.528696
0.311504
-0.0661715
-0.499291
-0.858919
-1.11928
-1.16927
-0.971137
1.25272
16.1477
12.5201
11.9479
-0.735057
-1.20166
-1.27334
-0.802751
-0.250984
0.148541
0.285492
0.183674
-0.0873805
-0.429353
-0.731365
-0.895501
-0.841899
-0.616296
-0.0256168
0.098666
4.85093
-0.179066
3.6832
-0.550724
-0.913186
-1.04686
-0.783998
-0.369923
-0.126489
-0.142961
-0.320574
-0.551019
-0.765853
-0.901667
-0.86706
-0.617851
-0.1609
0.667632
-0.300319
-1.99924
-4.35654
-0.895032
-0.30173
-0.663268
-0.868064
-0.791705
-0.608051
-0.663366
-0.822494
-1.01331
-1.08658
-1.1179
-1.11872
-1.00866
-0.712363
0.115461
0.418761
-2.1168
-3.69432
-5.13138
-2.59238
-0.164433
-0.521498
-0.80713
-0.924723
-1.165
-1.74603
-2.05026
-2.01103
-1.75338
-1.54892
-1.47094
-1.41547
-1.36688
-0.614307
-0.691329
-2.90531
-3.82645
-4.23576
-2.53322
-0.155462
-0.51688
-0.985669
-1.43979
-2.16961
-3.73663
-4.05877
-3.2604
-2.5427
-2.08179
-1.94313
-1.98085
-2.30128
-2.75888
-2.48928
-2.64455
-3.50897
-3.30042
-2.36907
-0.38143
-0.876361
-1.72989
-2.50114
-3.42695
-5.58771
-6.00116
-4.57507
-3.35253
-2.6703
-2.47201
-2.53913
-3.06421
-3.91654
-3.76739
-2.57815
-3.02607
-2.7366
-2.21071
-0.973435
-1.88865
-3.03117
-3.65185
-4.47438
-6.99124
-7.22095
-5.54065
-4.00928
-3.21584
-2.96727
-2.96378
-3.40969
-4.13611
-3.633
-2.8091
-2.79082
-2.53997
-2.25167
-1.94512
-3.02071
-3.83976
-4.11134
-4.85628
-7.60576
-7.61129
-5.90619
-4.40871
-3.6269
-3.33816
-3.24924
-3.46498
-3.96718
-2.93277
-2.84849
-2.77579
-2.61442
-2.47598
-2.87125
-3.58086
-4.10884
-4.32683
-5.05143
-7.1533
-7.17562
-5.83702
-4.56148
-3.87516
-3.58319
-3.42092
-3.44863
-3.72186
-2.87046
-2.8205
-2.80555
-2.72105
-2.70747
-3.32352
-3.86269
-4.36598
-4.59949
-5.19822
-6.42412
-6.52638
-5.50842
-4.51338
-3.9834
-3.72563
-3.5207
-3.42745
-3.54859
-3.10697
-2.84891
-2.87299
-2.82247
-2.81293
-3.59148
-4.12042
-4.57442
-4.8112
-5.31486
-5.92518
-5.83038
-5.06361
-4.37302
-4.00933
-3.7994
-3.58791
-3.42497
-3.43924
-3.23457
-2.99044
-2.98411
-2.94417
-2.92598
-3.80465
-4.31291
-4.66603
-4.91398
-5.28607
-5.4967
-5.23009
-4.66875
-4.23521
-3.99763
-3.83438
-3.65918
-3.49067
-3.40611
-3.26897
-3.17679
-3.1163
-3.0792
-3.0523
-3.97354
-4.42434
-4.69265
-4.89966
-5.09657
-5.07455
-4.78451
-4.39972
-4.13043
-3.96843
-3.85291
-3.76001
-3.67358
-3.56107
-3.36156
-3.35965
-3.25693
-3.21929
-3.18418
-4.14313
-4.5112
-4.71642
-4.83743
-4.88636
-4.75813
-4.49589
-4.23302
-4.04978
-3.93202
-3.87042
-3.88636
-3.95134
-3.85971
-3.46242
-3.4971
-3.39767
-3.36059
-3.31787
-4.33513
-4.61598
-4.74971
-4.79289
-4.74166
-4.56298
-4.33058
-4.12759
-3.98645
-3.90112
-3.89405
-4.00412
-4.22344
-4.29929
-3.58629
-3.60375
-3.53714
-3.50191
-3.45403
-4.56005
-4.73732
-4.7999
-4.77925
-4.66557
-4.46188
-4.23862
-4.06224
-3.9459
-3.88847
-3.92375
-4.08514
-4.38529
-4.59103
-3.77522
-3.72153
-3.67782
-3.64251
-3.59232
-4.83183
-4.90983
-4.89619
-4.81311
-4.65148
-4.42922
-4.20202
-4.03219
-3.9341
-3.9006
-3.95827
-4.13754
-4.38704
-4.62119
-3.98996
-3.84447
-3.81393
-3.78087
-3.73157
-5.1889
-5.18338
-5.07174
-4.90445
-4.694
-4.44636
-4.20407
-4.03103
-3.9511
-3.93895
-3.99634
-4.15254
-4.33327
-4.51772
-4.13236
-3.96329
-3.94191
-3.91468
-3.87057
-5.61555
-5.55263
-5.3425
-5.07262
-4.80087
-4.5118
-4.24008
-4.06111
-3.99697
-4.0039
-4.04415
-4.15427
-4.28825
-4.39161
-4.18947
-4.07005
-4.05842
-4.0418
-4.00926
-6.05236
-5.9287
-5.67672
-5.35229
-5.01919
-4.68489
-4.35387
-4.13947
-4.07865
-4.09467
-4.10767
-4.17136
-4.24569
-4.31849
-4.24305
-4.17306
-4.17218
-4.16452
-4.14737
-6.46578
-6.26694
-5.97922
-5.6511
-5.28112
-4.93619
-4.59282
-4.32517
-4.20607
-4.19587
-4.19131
-4.22219
-4.26336
-4.32353
-4.31568
-4.28441
-4.2899
-4.28947
-4.28224
-6.86011
-6.56341
-6.19825
-5.84256
-5.48639
-5.15568
-4.85087
-4.59381
-4.40737
-4.30282
-4.27732
-4.29516
-4.34855
-4.4011
-4.41424
-4.40432
-4.4141
-4.41798
-4.41616
-7.08575
-6.75235
-6.33189
-5.93821
-5.57249
-5.28401
-5.05156
-4.82375
-4.63183
-4.425
-4.35195
-4.37128
-4.45925
-4.51593
-4.53179
-4.53249
-4.54465
-4.55001
-4.55138
-7.03675
-6.75525
-6.36002
-5.96347
-5.60322
-5.3207
-5.15185
-5.00753
-4.84086
-4.58995
-4.45269
-4.47869
-4.59134
-4.64732
-4.6592
-4.66703
-4.68032
-4.68562
-4.68864
-6.77923
-6.61027
-6.2837
-5.92238
-5.60002
-5.34821
-5.1925
-5.1265
-5.03289
-4.84432
-4.67577
-4.66305
-4.75277
-4.78437
-4.79861
-4.80625
-4.81991
-4.82444
-4.82819
-6.49376
-6.3777
-6.12629
-5.83459
-5.57508
-5.37365
-5.25338
-5.21021
-5.20971
-5.12453
-4.96856
-4.90727
-4.92253
-4.92842
-4.94642
-4.94869
-4.96241
-4.96584
-4.96984
-6.18329
-6.10983
-5.94118
-5.73376
-5.54541
-5.39937
-5.32242
-5.29181
-5.32255
-5.29809
-5.18001
-5.13039
-5.0841
-5.07736
-5.09606
-5.09274
-5.10674
-5.10933
-5.11336
-5.92322
-5.88353
-5.78158
-5.6477
-5.52331
-5.42734
-5.38596
-5.36747
-5.39491
-5.38706
-5.33198
-5.30523
-5.23462
-5.22152
-5.24355
-5.23777
-5.25243
-5.25484
-5.25886
-5.74546
-5.72569
-5.66925
-5.59031
-5.51538
-5.45855
-5.44262
-5.44015
-5.45994
-5.46908
-5.43027
-5.41828
-5.37353
-5.35943
-5.38852
-5.38397
-5.39954
-5.40255
-5.40652
-5.64518
-5.63661
-5.60723
-5.56456
-5.52343
-5.49441
-5.49547
-5.50872
-5.52383
-5.53805
-5.50861
-5.48718
-5.50383
-5.49529
-5.5329
-5.53162
-5.54787
-5.55204
-5.55588
-5.60446
-5.60111
-5.5879
-5.56688
-5.54683
-5.53588
-5.54794
-5.57654
-5.59044
-5.61284
-5.60594
-5.54832
-5.63981
-5.6331
-5.67765
-5.68021
-5.69645
-5.70197
-5.70562
-5.60672
-5.6062
-5.60245
-5.59303
-5.58509
-5.58345
-5.60368
-5.65012
-5.67294
-5.72729
-5.76382
-5.63272
-5.78793
-5.77567
-5.82272
-5.82944
-5.84486
-5.85158
-5.85506
-5.63752
-5.63797
-5.64101
-5.63428
-5.63278
-5.63809
-5.6688
-5.73199
-5.77738
-5.89468
-5.99941
-5.75463
-5.94469
-5.92841
-5.97274
-5.98328
-5.99741
-6.00483
-6.00814
-5.68956
-5.68749
-5.68036
-5.68207
-5.68809
-5.7048
-5.75003
-5.82035
-5.89033
-6.09319
-6.23447
-5.91489
-6.12017
-6.09791
-6.13976
-6.15094
-6.16421
-6.17174
-6.17455
)
;

boundaryField
{
    leftWall
    {
        type            calculated;
        value           nonuniform List<scalar> 
50
(
667.804
608.758
549.474
489.957
430.125
369.94
309.571
250.055
157.801
51.8239
5.51229
4.94241
4.36328
3.73989
3.012
2.2904
1.6705
1.15521
0.713102
0.321402
-0.0306205
-0.355012
-0.65783
-0.944201
-1.21667
-1.47866
-1.73404
-1.98458
-2.23016
-2.47007
-2.70319
-2.92833
-3.14435
-3.35084
-3.54773
-3.73492
-3.91241
-4.08046
-4.23963
-4.39068
-4.53456
-4.6723
-4.80496
-4.9336
-5.05917
-5.18257
-5.30445
-5.42581
-5.54609
-5.67035
)
;
    }
    rightWall
    {
        type            calculated;
        value           nonuniform List<scalar> 
50
(
839.104
779.942
720.361
662.481
607.517
552.934
497.195
444.497
369.277
282.137
204.159
123.171
50.0664
24.8068
20.2141
11.9479
3.6832
-0.895032
-2.59238
-2.53322
-2.36907
-2.21071
-2.25167
-2.47598
-2.70747
-2.81293
-2.92598
-3.0523
-3.18418
-3.31787
-3.45403
-3.59232
-3.73157
-3.87057
-4.00926
-4.14737
-4.28224
-4.41616
-4.55138
-4.68864
-4.82819
-4.96984
-5.11336
-5.25886
-5.40652
-5.55588
-5.70562
-5.85506
-6.00814
-6.17455
)
;
    }
    lowerWall
    {
        type            calculated;
        value           nonuniform List<scalar> 
62
(
697.234
697.328
697.695
698.22
698.824
699.465
700.24
701.325
702.815
704.694
706.92
709.45
712.256
715.307
718.557
721.941
725.374
728.652
731.579
733.918
736.163
738.416
739.9
710.471
651.928
595.006
539.193
484.502
431.526
381.138
334.25
426.269
539.855
547.497
544.775
788.349
766.94
743.151
715.971
691.875
667.141
642.164
620.913
797.726
796.635
853.717
767.75
604.654
530.112
573.874
641.028
676.098
663.034
656.221
678.735
710.572
756.562
802.031
813.797
815.786
844.217
867.069
)
;
    }
    atmosphere
    {
        type            calculated;
        value           nonuniform List<scalar> 
46
(
-5.72904
-5.72904
-5.72904
-5.72904
-5.72904
-5.72904
-5.72904
-5.72904
-5.72904
-5.72904
-5.72904
-5.72904
-5.72904
-5.72904
-5.72904
-5.72904
-5.72904
-5.72904
-5.72904
-5.72904
-5.72904
-5.72904
-5.72904
-5.72904
-5.72904
-5.72904
-5.72904
-5.72904
-5.72904
-5.72904
-5.73017
-5.73289
-5.74724
-5.79987
-5.86544
-5.93888
-6.18507
-6.24088
-5.99532
-6.235
-6.19201
-6.23793
-6.24536
-6.25888
-6.26636
-6.26846
)
;
    }
    defaultFaces
    {
        type            empty;
    }
}


// ************************************************************************* //
