/*--------------------------------*- C++ -*----------------------------------*\
| =========                 |                                                 |
| \\      /  F ield         | OpenFOAM: The Open Source CFD Toolbox           |
|  \\    /   O peration     | Version:  2206                                  |
|   \\  /    A nd           | Website:  www.openfoam.com                      |
|    \\/     M anipulation  |                                                 |
\*---------------------------------------------------------------------------*/
FoamFile
{
    version     2.0;
    format      ascii;
    arch        "LSB;label=32;scalar=64";
    class       surfaceScalarField;
    location    "0.35";
    object      alphaPhi0.water;
}
// * * * * * * * * * * * * * * * * * * * * * * * * * * * * * * * * * * * * * //

dimensions      [0 3 -1 0 0 0 0];

oriented        oriented;

internalField   nonuniform List<scalar> 
4432
(
2.7985e-07
-2.7985e-07
1.58972e-06
-1.30987e-06
3.23776e-06
-1.64804e-06
4.82281e-06
-1.58504e-06
6.20797e-06
-1.38516e-06
7.39406e-06
-1.18609e-06
8.42432e-06
-1.03026e-06
9.33585e-06
-9.11527e-07
1.01445e-05
-8.08635e-07
1.08461e-05
-7.01628e-07
1.14222e-05
-5.76069e-07
1.18387e-05
-4.16553e-07
1.20491e-05
-2.10374e-07
1.19864e-05
6.26688e-08
1.15141e-05
4.72332e-07
1.05528e-05
9.61319e-07
9.05015e-06
1.50264e-06
7.02495e-06
2.0252e-06
4.65447e-06
2.37048e-06
2.28023e-06
2.37424e-06
4.22796e-07
1.85744e-06
-3.67713e-07
7.90511e-07
-3.67711e-07
2.61956e-07
-5.41804e-07
1.57624e-06
-2.62415e-06
3.25241e-06
-3.32421e-06
4.87896e-06
-3.21159e-06
6.30481e-06
-2.81102e-06
7.5238e-06
-2.40508e-06
8.57979e-06
-2.08625e-06
9.51392e-06
-1.84566e-06
1.03464e-05
-1.64112e-06
1.10773e-05
-1.43249e-06
1.16931e-05
-1.19184e-06
1.21792e-05
-9.02652e-07
1.25238e-05
-5.55024e-07
1.27141e-05
-1.27651e-07
1.27948e-05
3.9163e-07
1.27176e-05
1.0385e-06
1.23644e-05
1.85585e-06
1.15569e-05
2.83273e-06
1.01025e-05
3.82489e-06
7.93092e-06
4.54584e-06
5.21306e-06
4.5753e-06
2.39875e-06
3.60483e-06
2.03103e-06
2.17994e-07
-7.59797e-07
1.52318e-06
-3.92934e-06
3.23053e-06
-5.03156e-06
4.91121e-06
-4.89227e-06
6.39023e-06
-4.29004e-06
7.64897e-06
-3.66383e-06
8.73174e-06
-3.16901e-06
9.68661e-06
-2.80053e-06
1.05416e-05
-2.49608e-06
1.13025e-05
-2.19342e-06
1.19597e-05
-1.84902e-06
1.24934e-05
-1.43641e-06
1.28754e-05
-9.37022e-07
1.30823e-05
-3.34531e-07
1.30984e-05
3.75577e-07
1.29271e-05
1.2098e-06
1.2594e-05
2.18891e-06
1.20893e-05
3.33746e-06
1.1273e-05
4.64112e-06
9.84491e-06
5.97397e-06
7.45197e-06
6.96824e-06
4.00978e-06
7.04702e-06
6.04082e-06
1.56744e-07
-9.1654e-07
1.45152e-06
-5.22411e-06
3.203e-06
-6.78304e-06
4.95924e-06
-6.6485e-06
6.51369e-06
-5.84448e-06
7.83087e-06
-4.981e-06
8.95476e-06
-4.2929e-06
9.94213e-06
-3.78789e-06
1.08311e-05
-3.38501e-06
1.16349e-05
-2.99729e-06
1.23478e-05
-2.56193e-06
1.29517e-05
-2.04032e-06
1.3423e-05
-1.40826e-06
1.37354e-05
-6.46963e-07
1.38481e-05
2.6294e-07
1.37294e-05
1.32845e-06
1.33473e-05
2.57106e-06
1.26948e-05
3.98992e-06
1.17495e-05
5.58647e-06
1.03631e-05
7.36037e-06
8.13812e-06
9.19318e-06
4.61666e-06
1.05685e-05
1.06575e-05
8.42554e-08
-1.0008e-06
1.36589e-06
-6.50574e-06
3.1708e-06
-8.58795e-06
5.01662e-06
-8.49432e-06
6.66094e-06
-7.4888e-06
8.0502e-06
-6.37025e-06
9.22793e-06
-5.47063e-06
1.026e-05
-4.82e-06
1.11957e-05
-4.32065e-06
1.2057e-05
-3.85859e-06
1.28433e-05
-3.34827e-06
1.35394e-05
-2.7364e-06
1.41216e-05
-1.99049e-06
1.45613e-05
-1.08666e-06
1.48181e-05
6.15617e-09
1.48541e-05
1.29247e-06
1.46025e-05
2.82271e-06
1.39836e-05
4.60879e-06
1.29143e-05
6.65577e-06
1.13045e-05
8.97013e-06
8.92373e-06
1.1574e-05
5.23787e-06
1.42543e-05
1.58954e-05
8.9978e-09
-1.00979e-06
1.27144e-06
-7.76818e-06
3.13877e-06
-1.04553e-05
5.08106e-06
-1.04366e-05
6.82002e-06
-9.22775e-06
8.28768e-06
-7.8379e-06
9.5287e-06
-6.71164e-06
1.06177e-05
-5.90902e-06
1.16142e-05
-5.31713e-06
1.25488e-05
-4.79318e-06
1.34267e-05
-4.22613e-06
1.42358e-05
-3.54555e-06
1.49538e-05
-2.70854e-06
1.55514e-05
-1.6842e-06
1.59989e-05
-4.41387e-07
1.62407e-05
1.05072e-06
1.6216e-05
2.84735e-06
1.58176e-05
5.00724e-06
1.48813e-05
7.59206e-06
1.31972e-05
1.06543e-05
1.04923e-05
1.42789e-05
6.21515e-06
1.85315e-05
2.21105e-05
-8.44763e-08
-9.25316e-07
1.17963e-06
-9.03228e-06
3.11883e-06
-1.23945e-05
5.15201e-06
-1.24698e-05
6.9764e-06
-1.10521e-05
8.51919e-06
-9.38069e-06
9.82895e-06
-8.02139e-06
1.09872e-05
-7.06725e-06
1.20606e-05
-6.39052e-06
1.30862e-05
-5.81884e-06
1.40748e-05
-5.21467e-06
1.50188e-05
-4.48959e-06
1.59005e-05
-3.59021e-06
1.66956e-05
-2.47933e-06
1.73736e-05
-1.11939e-06
1.78905e-05
5.33851e-07
1.81878e-05
2.55007e-06
1.81655e-05
5.02954e-06
1.76451e-05
8.1124e-06
1.63723e-05
1.19271e-05
1.3875e-05
1.67762e-05
9.68939e-06
2.2717e-05
3.17999e-05
-1.5901e-07
-7.66305e-07
1.12787e-06
-1.03192e-05
3.13405e-06
-1.44006e-05
5.2334e-06
-1.45691e-05
7.11893e-06
-1.29377e-05
8.72398e-06
-1.09857e-05
1.01034e-05
-9.40083e-06
1.13426e-05
-8.30642e-06
1.25104e-05
-7.55837e-06
1.36465e-05
-6.95487e-06
1.47649e-05
-6.33306e-06
1.58634e-05
-5.58809e-06
1.6931e-05
-4.65782e-06
1.7952e-05
-3.50034e-06
1.89061e-05
-2.0735e-06
1.97668e-05
-3.26835e-07
2.04898e-05
1.82704e-06
2.09972e-05
4.52219e-06
2.11001e-05
8.00941e-06
2.04614e-05
1.25659e-05
1.81112e-05
1.91264e-05
1.28293e-05
2.7999e-05
4.46292e-05
-1.5626e-05
1.57046e-05
-2.56042e-05
1.00568e-05
-3.02315e-05
5.32653e-07
-3.6582e-05
-3.6933e-07
-3.51527e-05
-1.07694e-06
-2.9197e-05
-2.37836e-06
-2.354e-05
-5.55271e-06
9.14166e-07
-2.74064e-05
5.06299e-05
-5.02785e-05
8.40265e-05
-3.31404e-05
0.000101558
-1.68618e-05
0.000107817
-5.15856e-06
9.95296e-05
8.97752e-06
6.84002e-05
3.04837e-05
2.10142e-05
4.94391e-05
-5.40971e-06
3.76661e-05
-1.32037e-05
5.66042e-06
-2.62214e-05
5.48841e-06
-4.23662e-05
-9.24941e-06
2.55908e-05
-1.51025e-06
2.15448e-06
-1.12857e-06
2.85105e-08
-1.16275e-06
-3.973e-07
-1.38353e-06
-9.61843e-07
-1.71852e-06
-2.19908e-06
3.96782e-06
-1.0125e-05
7.49053e-05
-9.94504e-05
0.000115805
-9.1213e-05
0.00013776
-5.50965e-05
0.000149458
-2.85485e-05
0.000154195
-9.87778e-06
0.000153023
1.02421e-05
0.000141216
4.23327e-05
0.000104557
8.61254e-05
3.03176e-05
0.000116285
-4.75088e-06
4.32048e-05
-2.48472e-05
1.61271e-05
-7.38526e-05
-1.34978e-06
2.69867e-05
-3.5139e-07
1.09345e-06
-3.3934e-07
-3.87703e-08
-9.38603e-08
-6.98011e-07
5.27364e-07
-1.64521e-06
8.17231e-06
-9.92148e-06
8.22011e-05
-8.12126e-05
0.000118673
-0.00013521
0.000135831
-0.000108357
0.000148986
-6.82423e-05
0.000157475
-3.70209e-05
0.000161309
-1.36934e-05
0.000160751
1.08165e-05
0.000156284
4.68174e-05
0.00014261
9.98192e-05
0.00010001
0.000158913
1.80759e-05
0.000144967
-9.71414e-06
3.44716e-05
-8.77378e-05
8.03143e-07
1.88225e-05
6.08932e-07
1.11535e-06
6.17506e-07
-1.02558e-07
1.34906e-06
-1.50094e-06
8.59919e-06
-8.97714e-06
7.00822e-05
-7.13796e-05
0.000122353
-0.000133282
0.000131662
-0.000144524
0.000142677
-0.000119367
0.000153459
-7.90148e-05
0.000161058
-4.46068e-05
0.000165236
-1.78553e-05
0.000165687
1.03833e-05
0.000161739
5.07841e-05
0.000154924
0.000106652
0.000136494
0.000177363
7.62338e-05
0.000205299
1.09945e-05
0.000100616
-8.02378e-05
1.36216e-06
6.63924e-06
9.14187e-07
1.39141e-07
1.3818e-06
-6.41542e-07
8.13312e-06
-8.36953e-06
6.51824e-05
-6.44806e-05
0.000118181
-0.000124191
0.000131847
-0.000146814
0.000138592
-0.000151221
0.000146796
-0.000127537
0.000155146
-8.73616e-05
0.000161369
-5.08216e-05
0.000165621
-2.20937e-05
0.000167912
8.10976e-06
0.000165828
5.28859e-05
0.000160108
0.000112388
0.000151339
0.000186148
0.000114237
0.000242428
4.16479e-05
0.000189052
-3.76059e-05
1.27249e-06
4.72623e-06
1.51438e-06
-6.68924e-07
7.40485e-06
-6.64953e-06
6.49566e-05
-6.42397e-05
0.000115454
-0.000113419
0.000130034
-0.000138678
0.00013661
-0.000153269
0.00014074
-0.000155243
0.000144701
-0.000131368
0.000148233
-9.08629e-05
0.000150242
-5.24531e-05
0.000150701
-2.17634e-05
0.00015489
3.22212e-06
0.000161685
4.61064e-05
0.000160906
0.000113185
0.00015607
0.000191013
0.000133541
0.000264987
7.77219e-05
0.000244958
3.82222e-05
1.78888e-06
2.16468e-06
1.63523e-05
-1.594e-05
7.50399e-05
-6.35154e-05
0.000114107
-0.000102928
0.000127535
-0.000126771
0.000134394
-0.000145449
0.00013685
-0.000155634
0.000136234
-0.000154501
0.000127474
-0.000121368
9.58982e-05
-5.37053e-05
6.22515e-05
-1.14586e-05
4.81697e-05
-2.39906e-06
5.08525e-05
8.14214e-09
8.57927e-05
4.35435e-06
0.000131208
5.45014e-05
0.000148495
0.000173766
0.000136442
0.000277131
8.66621e-05
0.000294663
0.000124945
3.8164e-05
-3.09228e-05
8.69126e-05
-6.15874e-05
0.000113159
-8.97557e-05
0.000123916
-0.000113655
0.000129872
-0.000132665
0.00013265
-0.000148152
0.000128919
-0.000151769
0.000110021
-0.000133275
4.70105e-05
-5.07293e-05
1.31812e-05
-1.00448e-05
2.51664e-06
-7.5447e-07
1.22095e-07
-5.60998e-09
1.32656e-07
-3.09412e-09
4.21204e-06
1.26619e-07
4.22191e-05
4.03423e-06
0.000112189
7.92234e-05
0.000128821
0.000260413
8.78142e-05
0.000335144
0.000212025
-3.52737e-07
-4.13566e-07
2.49179e-06
-1.31637e-05
6.91795e-06
-1.88268e-05
1.15028e-05
-1.91539e-05
1.56037e-05
-1.70386e-05
1.91466e-05
-1.45286e-05
2.22909e-05
-1.25452e-05
2.52219e-05
-1.12374e-05
2.80724e-05
-1.04088e-05
3.09146e-05
-9.79711e-06
3.37784e-05
-9.19679e-06
3.66716e-05
-8.48137e-06
3.95972e-05
-7.58342e-06
4.25631e-05
-6.46616e-06
4.55907e-05
-5.10115e-06
4.87183e-05
-3.45451e-06
5.20371e-05
-1.49172e-06
5.57247e-05
8.34633e-07
6.00352e-05
3.69888e-06
6.56312e-05
6.96994e-06
7.37681e-05
1.09894e-05
8.77056e-05
1.40615e-05
2.27315e-05
0.000109603
-1.19596e-07
-2.93968e-07
2.87502e-06
-1.61583e-05
7.47085e-06
-2.34226e-05
1.21129e-05
-2.37959e-05
1.62119e-05
-2.11376e-05
1.98388e-05
-1.81555e-05
2.32349e-05
-1.59413e-05
2.65817e-05
-1.45842e-05
2.99681e-05
-1.37952e-05
3.34256e-05
-1.32546e-05
3.6965e-05
-1.27363e-05
4.05999e-05
-1.21163e-05
4.43581e-05
-1.13416e-05
4.8289e-05
-1.03971e-05
5.24705e-05
-9.28271e-06
5.70196e-05
-8.00356e-06
6.20945e-05
-6.56662e-06
6.7916e-05
-4.98687e-06
7.48698e-05
-3.25492e-06
8.32854e-05
-1.4457e-06
9.3601e-05
6.73797e-07
0.000105803
1.85967e-06
6.00958e-06
0.000122525
2.3076e-07
-5.24727e-07
3.36912e-06
-1.92967e-05
8.18376e-06
-2.8237e-05
1.28701e-05
-2.8482e-05
1.68761e-05
-2.51434e-05
2.0509e-05
-2.17883e-05
2.41273e-05
-1.95595e-05
2.78824e-05
-1.83393e-05
3.17826e-05
-1.76953e-05
3.57939e-05
-1.72658e-05
3.98947e-05
-1.6837e-05
4.40905e-05
-1.63121e-05
4.84135e-05
-1.56646e-05
5.29164e-05
-1.48999e-05
5.76684e-05
-1.40347e-05
6.27536e-05
-1.30888e-05
6.82705e-05
-1.20834e-05
7.43295e-05
-1.10458e-05
8.10804e-05
-1.00058e-05
8.86728e-05
-9.03812e-06
9.75166e-05
-8.17003e-06
0.000107161
-7.78474e-06
-7.30136e-06
0.000120472
1.03153e-06
-1.55626e-06
4.43091e-06
-2.2696e-05
9.34845e-06
-3.31508e-05
1.39023e-05
-3.30318e-05
1.77423e-05
-2.89806e-05
2.14269e-05
-2.54709e-05
2.53435e-05
-2.34746e-05
2.95351e-05
-2.25297e-05
3.39028e-05
-2.20619e-05
3.83565e-05
-2.17185e-05
4.28612e-05
-2.13407e-05
4.74227e-05
-2.08727e-05
5.20778e-05
-2.0319e-05
5.68747e-05
-1.96962e-05
6.18708e-05
-1.90302e-05
6.71291e-05
-1.83465e-05
7.27162e-05
-1.76708e-05
7.86996e-05
-1.70304e-05
8.51479e-05
-1.64537e-05
9.21088e-05
-1.59978e-05
9.96396e-05
-1.57005e-05
0.000107554
-1.56987e-05
-1.58475e-05
0.0001161
4.35772e-06
-5.91397e-06
9.78461e-06
-2.81061e-05
1.33503e-05
-3.66589e-05
1.59077e-05
-3.55323e-05
1.87654e-05
-3.17938e-05
2.23539e-05
-2.90242e-05
2.65522e-05
-2.76429e-05
3.10818e-05
-2.70319e-05
3.57198e-05
-2.66741e-05
4.03656e-05
-2.63394e-05
4.50016e-05
-2.59528e-05
4.96564e-05
-2.55047e-05
5.43694e-05
-2.50103e-05
5.91801e-05
-2.44854e-05
6.41379e-05
-2.39624e-05
6.9289e-05
-2.34783e-05
7.46811e-05
-2.30449e-05
8.0342e-05
-2.26752e-05
8.62488e-05
-2.23456e-05
9.22839e-05
-2.19804e-05
9.84836e-05
-2.1572e-05
0.00010471
-2.12598e-05
-2.08569e-05
0.000110894
1.33728e-05
-1.79765e-05
2.02747e-05
-2.49148e-05
1.76819e-05
-1.55843e-05
1.52689e-05
-1.57807e-05
1.57495e-05
-1.59313e-05
1.84816e-05
-1.55974e-05
2.20245e-05
-1.52816e-05
2.55874e-05
-1.48791e-05
2.89776e-05
-1.43595e-05
3.22029e-05
-1.37502e-05
3.52662e-05
-1.30724e-05
3.82096e-05
-1.23767e-05
4.09969e-05
-1.16419e-05
4.35836e-05
-1.08608e-05
4.59284e-05
-1.00375e-05
4.79881e-05
-9.18738e-06
4.96903e-05
-8.3308e-06
5.08612e-05
-7.46411e-06
5.11364e-05
-5.70554e-06
5.0228e-05
-8.94921e-07
4.80831e-05
-1.58357e-07
4.50102e-05
-2.87208e-08
-5.50672e-09
4.11479e-05
1.08256e-05
2.85019e-21
3.97266e-06
1.50126e-20
2.83737e-06
8.59564e-21
2.28599e-06
7.30787e-20
2.00897e-06
1.41627e-18
2.28572e-06
1.18941e-17
2.66763e-06
6.67432e-17
2.95563e-06
3.04009e-16
3.13446e-06
1.76678e-15
3.23198e-06
6.18525e-15
3.2633e-06
1.59639e-14
3.22621e-06
3.12529e-14
3.11389e-06
4.48241e-14
2.89749e-06
5.4162e-14
2.56985e-06
5.63359e-14
2.13047e-06
5.28574e-14
1.58005e-06
4.65009e-14
1.61571e-06
3.97662e-14
1.08891e-06
3.20247e-14
1.93991e-07
2.246e-14
3.56343e-08
1.16217e-14
6.91357e-09
4.61449e-15
-7.21318e-12
1.41488e-09
-5.25806e-22
1.10447e-20
-1.29871e-21
5.41568e-20
-4.24896e-21
8.87967e-20
-3.63443e-20
5.83855e-19
-5.42982e-19
7.66044e-18
-4.64788e-18
5.78676e-17
-2.90484e-17
3.18674e-16
-1.50925e-16
1.44553e-15
-1.01305e-15
5.40975e-15
-4.16145e-15
1.69097e-14
-1.24663e-14
4.22307e-14
-2.8282e-14
8.08934e-14
-4.67048e-14
1.12965e-13
-6.47269e-14
1.28232e-13
-7.70108e-14
1.26782e-13
-8.18716e-14
1.14393e-13
-8.0562e-14
9.70429e-14
-7.57278e-14
7.84438e-14
-6.7912e-14
5.90354e-14
-5.47755e-14
3.52411e-14
-3.04195e-14
-1.59268e-15
-1.25757e-14
-7.22645e-15
-1.20162e-11
4.81229e-12
1.63199e-20
7.02068e-21
1.16161e-19
2.94722e-20
3.27082e-19
1.51255e-19
-5.11443e-20
2.01826e-18
-1.98988e-18
1.81162e-17
-1.8764e-17
1.23215e-16
-1.25516e-16
6.48878e-16
-6.84046e-16
2.77496e-15
-3.02703e-15
9.82294e-15
-1.08726e-14
2.8653e-14
-3.15444e-14
6.75277e-14
-6.8166e-14
1.2042e-13
-1.07823e-13
1.54549e-13
-1.36753e-13
1.60845e-13
-1.5045e-13
1.47049e-13
-1.50782e-13
1.232e-13
-1.41711e-13
9.70294e-14
-1.26193e-13
7.12574e-14
-1.03787e-13
4.25328e-14
-6.70676e-14
-3.40924e-15
4.28701e-15
-9.08446e-14
6.35726e-14
-6.61639e-14
-1.0374e-10
9.17812e-11
8.4844e-21
1.03596e-21
2.79225e-20
1.60649e-20
-1.44056e-20
3.20827e-19
-3.6615e-19
3.94225e-18
-4.18053e-18
3.41158e-17
-3.47101e-17
2.22895e-16
-2.21843e-16
1.12456e-15
-1.12678e-15
4.54632e-15
-4.63992e-15
1.50043e-14
-1.55424e-14
4.03512e-14
-4.15555e-14
8.67686e-14
-8.32217e-14
1.39206e-13
-1.18881e-13
1.55885e-13
-1.37639e-13
1.42449e-13
-1.39724e-13
1.1531e-13
-1.30335e-13
8.60376e-14
-1.14084e-13
5.90347e-14
-9.21675e-14
3.13263e-14
-5.95055e-14
-1.09927e-14
1.29214e-14
-9.91158e-14
2.2084e-13
-3.05801e-13
7.32358e-13
-5.83712e-13
-1.25698e-09
1.1542e-09
-3.51602e-25
3.41889e-22
-1.05158e-21
2.60555e-20
-3.19422e-20
5.68231e-19
-4.92138e-19
6.88609e-18
-5.58349e-18
5.79121e-17
-4.60438e-17
3.6076e-16
-2.82549e-16
1.7209e-15
-1.35235e-15
6.49404e-15
-5.18493e-15
1.96845e-14
-1.59845e-14
4.78861e-14
-3.89555e-14
9.15802e-14
-7.03682e-14
1.27954e-13
-8.83753e-14
1.1917e-13
-9.09374e-14
9.14383e-14
-8.3299e-14
6.26165e-14
-7.02377e-14
3.81433e-14
-5.37943e-14
1.56477e-14
-3.12099e-14
-1.6049e-14
3.30537e-14
-7.42464e-14
2.52706e-13
-3.31427e-13
1.64213e-12
-1.78107e-12
5.55868e-12
-4.5494e-12
-1.31032e-08
1.18506e-08
-1.37661e-23
4.82662e-22
-1.0412e-21
4.29651e-20
-2.86106e-20
9.11313e-19
-5.12504e-19
1.08168e-17
-5.8756e-18
8.70843e-17
-4.68536e-17
5.12273e-16
-2.73653e-16
2.28483e-15
-1.23078e-15
7.9389e-15
-4.3654e-15
2.17395e-14
-1.22535e-14
4.67889e-14
-2.67961e-14
7.73523e-14
-4.26446e-14
9.07107e-14
-4.53911e-14
6.64534e-14
-4.00981e-14
4.04295e-14
-3.16332e-14
2.10533e-14
-2.18659e-14
4.6697e-15
-9.91311e-15
-1.7503e-14
2.89835e-14
-5.48076e-14
2.87976e-13
-3.48586e-13
1.85169e-12
-2.00634e-12
1.08624e-11
-1.16356e-11
4.83898e-11
-4.24547e-11
-2.09588e-08
2.32091e-08
-1.49432e-23
8.35401e-22
-1.05946e-21
6.54038e-20
-2.71442e-20
1.32395e-18
-4.40634e-19
1.50806e-17
-4.59004e-18
1.14889e-16
-3.36197e-17
6.30927e-16
-1.82468e-16
2.59323e-15
-7.55319e-16
8.15048e-15
-2.42189e-15
1.97173e-14
-6.02272e-15
3.64386e-14
-1.14147e-14
4.99936e-14
-1.53804e-14
4.67374e-14
-1.31103e-14
2.51466e-14
-9.365e-15
1.07842e-14
-5.6484e-15
1.44872e-15
-1.39953e-15
-1.32387e-14
1.246e-14
-4.24843e-14
1.31004e-13
-2.44932e-13
1.21829e-12
-1.89674e-12
1.01082e-11
-1.04146e-11
6.16464e-11
-6.97725e-11
4.0145e-10
-3.85679e-10
-1.20261e-08
3.63482e-08
-1.61008e-23
1.32394e-21
-7.61545e-22
9.01425e-20
-1.27824e-20
1.72916e-18
-1.22962e-19
1.85584e-17
-8.58707e-19
1.31524e-16
-4.61061e-18
6.62657e-16
-1.91252e-17
2.45788e-15
-5.99971e-17
6.81185e-15
-1.36118e-16
1.40886e-14
-2.10808e-16
2.13721e-14
-2.21536e-16
2.28554e-14
-1.93498e-16
1.59243e-14
-1.52243e-16
6.36108e-15
-9.73031e-17
9.97093e-16
-1.28316e-17
-4.65434e-15
5.74451e-17
-2.2595e-14
1.48457e-15
-1.21512e-13
4.21556e-14
-6.81416e-13
6.4966e-13
-5.1577e-12
-7.80776e-12
-6.11423e-11
5.87304e-11
-6.46498e-10
4.14429e-10
-1.1744e-09
-6.07398e-10
1.0387e-09
-7.44688e-24
1.85901e-21
8.86172e-21
9.99004e-20
2.84832e-19
1.73116e-18
3.42771e-18
1.70551e-17
2.45878e-17
1.10845e-16
1.19955e-16
5.07197e-16
4.18683e-16
1.6828e-15
1.06431e-15
4.08431e-15
1.95654e-15
7.19644e-15
2.5069e-15
8.98363e-15
2.06198e-15
7.59056e-15
9.55572e-16
3.99425e-15
1.71876e-16
9.71943e-16
-9.26533e-16
-6.63679e-16
-1.0634e-15
-5.72523e-15
7.54677e-15
-4.0071e-14
1.73357e-13
-3.62476e-13
2.42356e-12
-2.94228e-12
2.39088e-11
-2.93229e-11
-1.67517e-10
-2.01229e-10
-7.83221e-10
-1.28416e-09
-2.11557e-10
-1.73324e-09
-7.93049e-10
-3.77026e-11
4.93772e-22
1.73821e-21
3.74669e-20
7.62938e-20
6.80525e-19
1.19798e-18
6.53593e-18
1.08131e-17
4.01286e-17
6.42204e-17
1.69484e-16
2.66212e-16
5.07173e-16
7.90198e-16
1.07976e-15
1.68839e-15
1.607e-15
2.56872e-15
1.60126e-15
2.70788e-15
9.82915e-16
1.88058e-15
2.76449e-16
7.55216e-16
-2.17636e-16
-3.73172e-17
-4.20538e-16
-4.1416e-16
1.24958e-15
-6.8462e-15
4.88748e-14
-8.64422e-14
5.87374e-13
-9.40577e-13
6.51363e-12
-9.74053e-12
6.6327e-11
-9.81415e-11
-5.52268e-10
-8.80173e-10
-1.73017e-09
-1.95391e-09
-1.4705e-09
-1.86298e-09
-1.69817e-09
-1.83864e-09
1.03212e-21
9.43802e-22
4.4518e-20
3.5392e-20
6.73067e-19
5.07652e-19
5.67715e-18
4.2123e-18
3.08683e-17
2.29416e-17
1.14791e-16
8.66887e-17
2.98576e-16
2.32695e-16
5.42676e-16
4.45486e-16
6.74635e-16
6.01281e-16
5.46968e-16
5.56247e-16
2.54246e-16
3.32365e-16
-1.39362e-17
1.02303e-16
-6.84792e-17
-2.51952e-17
-3.3916e-16
-2.64063e-16
-3.49268e-15
-3.83118e-15
-4.54205e-14
-4.77738e-14
-5.23802e-13
-5.49984e-13
-5.27406e-12
-5.99277e-12
-6.33102e-11
-5.08153e-11
-2.45006e-09
-7.42754e-10
-2.7479e-09
-1.52645e-09
-2.92511e-09
-1.55638e-09
-1.47862e-09
-3.01471e-09
7.414e-22
2.27768e-22
2.55815e-20
7.52893e-21
3.41276e-19
9.96067e-20
2.5853e-18
7.65969e-19
1.26346e-17
3.86306e-18
4.20161e-17
1.34811e-17
9.69409e-17
3.33108e-17
1.54787e-16
5.85223e-17
1.67187e-16
7.2302e-17
1.15479e-16
6.10163e-17
4.07703e-17
3.26474e-17
-8.88308e-18
6.90895e-18
-2.48826e-17
-9.19572e-18
-2.0169e-16
-9.98477e-17
-3.25367e-15
-6.08228e-16
-5.0624e-14
-4.50249e-15
-5.57115e-13
-4.09783e-14
-6.15695e-12
-2.98544e-13
-5.38296e-11
-2.28592e-12
-7.00727e-10
-3.11931e-11
-1.77234e-09
-2.71315e-10
-2.46573e-09
-7.33252e-10
-9.74727e-10
-2.8286e-09
2.02443e-22
1.83845e-26
6.07042e-21
3.15928e-25
7.33702e-20
2.06049e-24
5.07994e-19
6.88926e-24
2.27039e-18
1.04555e-23
6.89096e-18
-7.21665e-24
1.44705e-17
-2.04429e-22
2.09708e-17
-1.41645e-21
2.04778e-17
-3.77835e-21
1.25463e-17
-9.43304e-21
3.01572e-18
-7.27109e-20
-4.32456e-18
-1.00444e-18
-9.37991e-18
-6.95062e-18
-9.01015e-17
-5.38088e-17
-7.01868e-16
-4.35967e-16
-6.47099e-15
-5.10905e-15
-1.75406e-14
-5.45774e-14
-1.27354e-13
-1.50289e-13
-1.98057e-12
-3.37133e-13
-3.26417e-11
-4.94397e-13
-3.03514e-10
-4.68626e-13
-4.80855e-10
-3.51272e-13
-3.49749e-13
-2.69729e-10
9.92774e-27
8.80221e-27
1.41906e-25
1.50971e-25
7.35128e-25
1.03093e-24
1.51811e-24
3.74198e-24
-1.28063e-25
6.47617e-24
-4.36511e-24
-2.9796e-24
-3.47844e-23
-1.7401e-22
-1.08056e-22
-1.34318e-21
-8.51432e-22
-3.03497e-21
-3.35009e-21
-6.93438e-21
-6.96021e-20
-5.32486e-20
-9.48089e-19
-6.16067e-19
-5.49693e-18
-3.57631e-18
-3.6698e-17
-1.388e-17
-4.37738e-16
-7.03823e-17
-1.10557e-14
-8.93246e-16
-9.8295e-14
-1.86981e-14
-1.30072e-13
-1.78046e-13
-1.04689e-13
-3.90038e-13
-7.89292e-14
-5.14302e-13
-6.23516e-14
-4.93359e-13
-5.27673e-14
-3.76336e-13
-3.84283e-13
-4.17623e-14
5.22637e-27
2.78334e-27
7.66217e-26
4.89344e-26
4.26846e-25
3.65316e-25
9.99017e-25
1.59784e-24
-5.81386e-25
4.49355e-24
-1.17258e-23
8.16483e-24
-1.81456e-22
8.34207e-24
-6.23747e-22
5.59287e-26
-1.17942e-21
-1.27223e-23
-4.28e-21
-4.06927e-22
-5.33973e-20
-1.39782e-20
-5.19035e-19
-2.73901e-19
-2.92473e-18
-1.89546e-18
-7.17303e-18
-5.59631e-18
-4.28303e-17
-8.89763e-18
-8.85255e-16
-2.90492e-17
-3.62322e-14
-4.76566e-16
-2.68177e-13
-1.57681e-14
-3.35125e-13
-1.43485e-13
-3.89166e-13
-2.8447e-13
-3.39598e-13
-3.43426e-13
-3.15175e-13
-2.61964e-13
-2.49459e-13
-3.12022e-13
1.7894e-27
4.07857e-28
2.83054e-26
7.12986e-27
1.8887e-25
5.42398e-26
7.15391e-25
2.43116e-25
1.63843e-24
7.04256e-25
2.02531e-24
1.32652e-24
1.59812e-26
1.43418e-24
-4.69503e-24
2.10888e-25
-1.58076e-23
-1.60971e-24
-3.65037e-22
-4.72861e-23
-1.38843e-20
-1.43957e-21
-2.7805e-19
-5.09073e-20
-1.55282e-18
-5.99348e-19
-3.37365e-18
-2.60863e-18
-4.82592e-18
-5.21224e-18
-2.36411e-17
-6.40334e-18
-4.94134e-16
-4.75094e-18
-1.58249e-14
-4.84207e-18
-1.37736e-13
-4.42849e-18
-2.22401e-13
-2.55099e-18
-2.79681e-13
-2.54539e-18
-2.85911e-13
-2.04087e-17
-2.70086e-16
-2.93605e-13
2.66815e-28
3.27333e-35
4.26617e-27
8.59517e-35
2.9071e-26
-3.50569e-35
1.13159e-25
-3.62047e-33
2.681e-25
-2.79811e-31
3.49946e-25
-1.68621e-29
6.04246e-26
-1.56717e-28
-5.2216e-25
-1.48771e-27
-2.06311e-24
-6.87667e-26
-4.54761e-23
-1.854e-24
-1.35834e-21
-5.64406e-23
-4.6284e-20
-1.75557e-21
-4.99562e-19
-5.57826e-20
-1.99904e-18
-5.90658e-19
-3.39084e-18
-2.429e-18
-3.23343e-18
-4.4378e-18
-1.45181e-18
-4.54717e-18
-1.21097e-18
-4.50589e-18
-1.16866e-18
-4.06485e-18
-1.12974e-18
-2.20681e-18
-2.07691e-18
-1.57933e-18
-2.14421e-17
-1.16634e-18
-1.85708e-18
-2.896e-16
3.21336e-36
-2.69837e-43
-2.7423e-36
-1.05798e-40
-3.77666e-35
-3.26499e-38
-3.65467e-33
-3.56855e-36
-3.68528e-31
-1.46959e-34
-1.89473e-29
-9.62e-33
-2.64953e-29
-5.22293e-31
-1.46727e-27
-4.69328e-29
-6.76844e-26
-1.1964e-27
-1.81167e-24
-3.5982e-26
-5.50623e-23
-1.17592e-24
-1.70187e-21
-3.52507e-23
-4.91824e-20
-1.22828e-21
-4.75999e-19
-2.9389e-20
-1.85879e-18
-2.81755e-19
-3.17576e-18
-1.32986e-18
-3.37917e-18
-2.05863e-18
-3.12621e-18
-2.47511e-18
-2.27795e-18
-3.27117e-18
-1.73693e-18
-2.69808e-18
-1.20957e-18
-2.65118e-18
-2.36256e-19
-2.54012e-18
-2.09956e-18
-7.53881e-20
-2.65933e-43
-3.90408e-45
-1.05112e-40
-9.52366e-43
-3.23215e-38
-1.66408e-40
-3.55305e-36
-1.95129e-38
-1.47902e-34
-8.72692e-37
-9.51434e-33
-6.12613e-35
-5.12019e-31
-3.58406e-33
-4.67885e-29
-3.41006e-31
-1.22182e-27
-9.45329e-30
-3.61902e-26
-3.11858e-28
-1.17921e-24
-1.09963e-26
-3.53495e-23
-3.52748e-25
-1.09278e-21
-1.06234e-23
-2.29427e-20
-4.16874e-22
-2.1867e-19
-7.24757e-21
-1.10434e-18
-4.94801e-20
-1.7753e-18
-1.75539e-19
-1.9132e-18
-4.08668e-19
-2.24808e-18
-7.19933e-19
-2.34448e-18
-5.58851e-19
-2.40855e-18
-5.44287e-19
-2.27664e-18
-6.21627e-19
-7.60498e-19
-1.99458e-18
-8.66845e-45
4.76437e-45
-9.61529e-43
4.94851e-46
-1.67179e-40
-7.22504e-44
-1.96576e-38
-9.12852e-42
-8.90887e-37
-4.45744e-40
-6.21038e-35
-3.34198e-38
-3.63471e-33
-2.10077e-36
-3.44221e-31
-2.11958e-34
-1.00127e-29
-6.15947e-33
-3.2156e-28
-2.26002e-31
-1.129e-26
-8.53706e-30
-3.6324e-25
-2.93484e-28
-1.09201e-23
-9.33429e-27
-3.8687e-22
-3.46479e-25
-5.4685e-21
-9.48267e-24
-3.08528e-20
-9.52303e-23
-9.84619e-20
-4.65075e-22
-2.29164e-19
-1.42823e-21
-4.50571e-19
-3.21412e-21
-3.45904e-19
-5.54296e-21
-3.0507e-19
-7.48077e-21
-4.00005e-19
-8.43309e-21
-8.60326e-21
-4.57926e-19
1.68646e-47
2.14367e-45
-2.80651e-45
6.40424e-45
-7.50154e-44
-4.23512e-47
-9.26284e-42
-6.14774e-45
-4.57523e-40
-3.67635e-43
-3.38873e-38
-2.96434e-41
-2.12398e-36
-2.00869e-39
-2.13663e-34
-2.103e-37
-6.51838e-33
-7.09728e-36
-2.31931e-31
-2.86232e-34
-8.73207e-30
-1.16507e-32
-3.01081e-28
-4.31556e-31
-9.59153e-27
-1.47075e-29
-3.33668e-25
-5.26894e-28
-7.49825e-24
-2.01382e-26
-6.23167e-23
-2.43178e-25
-2.71122e-22
-1.18584e-24
-7.96308e-22
-3.17317e-24
-1.72882e-21
-5.95719e-24
-2.81593e-21
-9.0897e-24
-3.62806e-21
-1.2104e-23
-4.02712e-21
-1.44937e-23
-1.58143e-23
-4.03562e-21
2.08255e-46
2.95794e-52
-1.623e-48
-3.9135e-55
-5.20663e-47
-1.19717e-52
-7.27481e-45
-1.72194e-50
-3.74904e-43
-1.38594e-48
-3.00179e-41
-1.20296e-46
-2.0387e-39
-8.82357e-45
-2.35674e-37
-7.41759e-43
-7.33286e-36
-3.42048e-41
-2.93561e-34
-1.4854e-39
-1.19441e-32
-6.50862e-38
-4.4349e-31
-2.5967e-36
-1.51587e-29
-9.54991e-35
-5.55346e-28
-3.80941e-33
-1.76807e-26
-1.20589e-31
-1.65616e-25
-1.93893e-30
-6.54493e-25
-3.14329e-29
-1.55824e-24
-4.90433e-28
-2.80284e-24
-4.30736e-27
-4.25994e-24
-1.87719e-26
-5.73551e-24
-4.79911e-26
-6.98756e-24
-8.75451e-26
-1.3105e-25
-7.82696e-24
-1.20835e-56
-5.64308e-61
-4.02802e-55
-6.31465e-58
-1.20618e-52
-1.10985e-55
-1.72811e-50
-1.74508e-53
-1.39713e-48
-1.53251e-51
-1.21723e-46
-1.4489e-49
-8.87148e-45
-1.15528e-47
-7.47808e-43
-1.04658e-45
-3.4805e-41
-5.27674e-44
-1.51368e-39
-2.48744e-42
-6.60835e-38
-1.18552e-40
-2.64349e-36
-5.13362e-39
-9.67505e-35
-2.03932e-37
-2.70603e-33
-7.68885e-36
-6.11203e-32
-3.76675e-34
-1.09476e-30
-6.40274e-33
-2.52038e-29
-7.79671e-32
-4.28324e-28
-1.24715e-30
-3.23516e-27
-1.78652e-29
-1.18499e-26
-1.24156e-28
-2.70646e-26
-4.23512e-28
-4.69346e-26
-8.93573e-28
-1.41157e-27
-7.05448e-26
-5.63842e-61
-4.66317e-64
-6.3118e-58
-3.01403e-61
-1.11422e-55
-5.79813e-59
-1.75344e-53
-9.97701e-57
-1.54645e-51
-9.60001e-55
-1.46385e-49
-9.91352e-53
-1.16483e-47
-8.63333e-51
-1.05604e-45
-8.49035e-49
-5.3699e-44
-4.69271e-47
-2.53368e-42
-2.42836e-45
-1.20581e-40
-1.26273e-43
-5.2331e-39
-5.96514e-42
-2.08383e-37
-2.58344e-40
-7.58489e-36
-1.04573e-38
-2.18317e-34
-5.35914e-37
-2.92943e-33
-1.41846e-35
-4.6588e-32
-1.50394e-34
-1.11202e-30
-1.40626e-33
-1.55191e-29
-2.16774e-32
-8.72606e-29
-2.73692e-31
-2.50212e-28
-1.53164e-30
-4.88877e-28
-4.27463e-30
-7.70614e-30
-7.79923e-28
-4.66167e-64
-4.74121e-68
-3.01778e-61
-3.34444e-65
-5.8686e-59
-6.98784e-63
-1.00339e-56
-1.32718e-60
-9.69819e-55
-1.40503e-58
-1.00134e-52
-1.5971e-56
-8.72678e-51
-1.52576e-54
-8.57347e-49
-1.63959e-52
-4.82755e-47
-9.77561e-51
-2.47592e-45
-5.67217e-49
-1.28623e-43
-3.23199e-47
-6.08794e-42
-1.67393e-45
-2.64193e-40
-7.94558e-44
-1.0665e-38
-3.48434e-42
-4.32625e-37
-1.51497e-40
-7.27204e-36
-8.42692e-39
-6.32667e-35
-1.29444e-37
-8.86035e-34
-9.39074e-37
-2.04869e-32
-7.79048e-36
-2.29226e-31
-1.27489e-34
-1.00421e-30
-1.35151e-33
-2.39739e-30
-5.87855e-33
-1.32463e-32
-4.20478e-30
-4.74485e-68
3.6367e-71
-3.34918e-65
-2.78453e-72
-7.09738e-63
-6.9069e-70
-1.3431e-60
-1.47662e-67
-1.4846e-58
-1.82086e-65
-1.61626e-56
-2.26143e-63
-1.54192e-54
-2.37609e-61
-1.65501e-52
-2.78078e-59
-1.00939e-50
-1.84449e-57
-5.7731e-49
-1.20407e-55
-3.28972e-47
-7.55839e-54
-1.70683e-45
-4.31781e-52
-8.11626e-44
-2.26067e-50
-3.56588e-42
-1.09267e-48
-1.56503e-40
-4.92246e-47
-5.95987e-39
-2.51203e-45
-5.73273e-38
-1.14816e-43
-3.7385e-37
-1.46095e-42
-5.60746e-36
-7.33618e-42
-1.2486e-34
-2.29094e-41
-1.05369e-33
-6.26616e-41
-3.56236e-33
-2.25438e-40
-3.40545e-39
-7.29067e-33
-3.75237e-74
-7.06225e-80
-3.31417e-72
-7.92516e-77
-7.44148e-70
-2.44399e-74
-1.58632e-67
-5.62456e-72
-2.07847e-65
-9.0446e-70
-2.28184e-63
-1.16279e-67
-2.399e-61
-1.35617e-65
-2.93158e-59
-1.56701e-63
-1.87348e-57
-1.27415e-61
-1.22257e-55
-9.24354e-60
-7.67845e-54
-6.44691e-58
-4.39325e-52
-4.09543e-56
-2.30391e-50
-2.38492e-54
-1.11539e-48
-1.28237e-52
-5.03619e-47
-6.40723e-51
-2.57009e-45
-3.04907e-49
-9.00569e-44
-2.0353e-47
-8.1084e-43
-4.83958e-46
-3.31145e-42
-3.57771e-45
-1.04387e-41
-1.37329e-44
-2.72293e-41
-4.33219e-44
-1.56519e-40
-2.07732e-43
-6.58806e-42
-3.55218e-39
-7.06136e-80
-8.88762e-84
-7.93039e-77
-5.93521e-81
-2.45534e-74
-2.06744e-78
-5.64746e-72
-5.385e-76
-9.09806e-70
-9.78368e-74
-1.17145e-67
-1.41934e-71
-1.3674e-65
-1.86614e-69
-1.58008e-63
-2.42513e-67
-1.28941e-61
-2.22563e-65
-9.36818e-60
-1.81794e-63
-6.53581e-58
-1.42753e-61
-4.15767e-56
-1.02101e-59
-2.42467e-54
-6.69467e-58
-1.30564e-52
-4.05367e-56
-6.53301e-51
-2.281e-54
-3.11945e-49
-1.21278e-52
-1.83016e-47
-8.76882e-51
-2.93089e-46
-2.93229e-49
-1.60779e-45
-2.39057e-48
-5.99938e-45
-7.95717e-48
-1.7963e-44
-1.83452e-47
-1.49365e-43
-8.23013e-47
-3.4896e-45
-6.73225e-42
-8.8874e-84
-7.54733e-89
-5.9439e-81
-6.38068e-86
-2.0733e-78
-2.69154e-83
-5.4058e-76
-8.3193e-81
-9.8372e-74
-1.77326e-78
-1.42909e-71
-2.9962e-76
-1.88047e-69
-4.56527e-74
-2.44376e-67
-6.8466e-72
-2.24989e-65
-7.25163e-70
-1.84085e-63
-6.82815e-68
-1.44573e-61
-6.16265e-66
-1.03531e-59
-5.06027e-64
-6.79714e-58
-3.80623e-62
-4.12099e-56
-2.64232e-60
-2.32184e-54
-1.70381e-58
-1.24275e-52
-1.02888e-56
-8.78599e-51
-7.19456e-55
-1.9105e-49
-4.5161e-53
-1.02478e-48
-5.60145e-52
-2.89602e-48
-2.21089e-51
-5.87376e-48
-4.81325e-51
-5.75828e-47
-2.82052e-50
-1.61737e-48
-3.54497e-45
-7.54727e-89
-1.89852e-94
-6.38813e-86
-2.60022e-91
-2.70405e-83
-1.52598e-88
-8.34716e-81
-6.15173e-86
-1.78172e-78
-1.64517e-83
-3.01654e-76
-3.42534e-81
-4.59569e-74
-6.34711e-79
-6.89225e-72
-1.14629e-76
-7.34742e-70
-1.43946e-74
-6.90337e-68
-1.63952e-72
-6.23106e-66
-1.76082e-70
-5.122e-64
-1.71587e-68
-3.85699e-62
-1.52833e-66
-2.68056e-60
-1.25402e-64
-1.73039e-58
-9.54162e-63
-1.0478e-56
-6.77144e-61
-7.79368e-55
-4.5726e-59
-3.285e-53
-4.48967e-57
-2.53957e-52
-1.45239e-55
-7.45454e-52
-1.02082e-54
-1.18746e-51
-2.66345e-54
-2.04453e-50
-2.41914e-53
-1.82585e-51
-1.63561e-48
-1.90679e-94
8.27239e-97
-2.61034e-91
-2.29059e-97
-1.5393e-88
-2.62774e-94
-6.19383e-86
-1.61744e-91
-1.65068e-83
-6.00987e-89
-3.49393e-81
-1.72499e-86
-6.38192e-79
-4.13019e-84
-1.15265e-76