/*--------------------------------*- C++ -*----------------------------------*\
| =========                 |                                                 |
| \\      /  F ield         | OpenFOAM: The Open Source CFD Toolbox           |
|  \\    /   O peration     | Version:  2206                                  |
|   \\  /    A nd           | Website:  www.openfoam.com                      |
|    \\/     M anipulation  |                                                 |
\*---------------------------------------------------------------------------*/
FoamFile
{
    version     2.0;
    format      ascii;
    arch        "LSB;label=32;scalar=64";
    class       volScalarField;
    location    "0.225";
    object      p_rgh;
}
// * * * * * * * * * * * * * * * * * * * * * * * * * * * * * * * * * * * * * //

dimensions      [1 -1 -2 0 0 0 0];

internalField   nonuniform List<scalar> 
2268
(
1935.02
1935.51
1935.39
1934.95
1934.36
1933.69
1932.99
1932.3
1931.68
1931.19
1930.91
1930.93
1931.34
1932.29
1933.82
1935.93
1938.54
1941.53
1944.68
1947.72
1950.38
1952.49
1953.8
1934.68
1935.17
1935.06
1934.62
1934.02
1933.35
1932.63
1931.94
1931.31
1930.8
1930.5
1930.46
1930.78
1931.48
1932.68
1934.52
1937.02
1940.11
1943.59
1947.23
1950.72
1953.63
1955.45
1933.98
1934.49
1934.38
1933.95
1933.34
1932.65
1931.92
1931.2
1930.55
1930.01
1929.66
1929.57
1929.81
1930.46
1931.61
1933.28
1935.49
1938.24
1941.47
1945.11
1948.93
1952.42
1954.73
1932.91
1933.45
1933.36
1932.93
1932.31
1931.59
1930.83
1930.08
1929.39
1928.81
1928.39
1928.21
1928.33
1928.84
1929.78
1931.23
1933.2
1935.68
1938.62
1941.93
1945.47
1948.89
1951.31
1931.47
1932.03
1931.96
1931.53
1930.89
1930.14
1929.35
1928.56
1927.81
1927.16
1926.65
1926.35
1926.31
1926.61
1927.3
1928.43
1930.03
1932.1
1934.57
1937.31
1940.1
1942.57
1944.24
1929.62
1930.21
1930.17
1929.74
1929.07
1928.28
1927.43
1926.58
1925.77
1925.02
1924.39
1923.92
1923.67
1923.7
1924.04
1924.72
1925.75
1927.11
1928.7
1930.34
1931.71
1932.37
1931.66
1927.35
1928
1927.97
1927.54
1926.84
1925.99
1925.08
1924.16
1923.25
1922.37
1921.58
1920.89
1920.36
1920.01
1919.86
1919.9
1920.1
1920.32
1920.33
1919.73
1917.7
1912.94
1903.22
1924.65
1925.38
1925.38
1924.93
1924.19
1923.29
1922.31
1921.3
1920.27
1919.25
1918.25
1917.3
1916.41
1915.59
1914.81
1914
1913
1911.55
1909.18
1905.25
1897.9
1886.99
1847.24
294.054
293.906
293.651
293.065
290.719
287.342
308.52
609.115
1255.71
1073.75
576.346
274.845
174.065
166.224
163.949
117.675
100.602
98.6819
100.139
294.072
293.954
293.705
293.17
290.001
282.922
297.389
578.79
1151.02
984.551
543.048
279.856
192.202
158.006
166.525
127.198
97.3285
98.2118
100.209
294.109
293.991
293.793
292.909
289.622
284.245
359.322
594.395
966.241
816.71
457.498
253.594
158.626
70.9217
42.6442
63.5662
89.9383
94.5755
100.632
294.111
294.005
293.765
292.775
290.301
358.022
458.921
576.778
790.75
644.215
345.291
160.772
57.7496
7.02883
-0.0849784
7.05489
41.5634
82.9145
101.249
294.084
294.009
293.838
293.288
383.71
508.055
492.716
553.277
639.136
444.917
156.46
27.1065
1.83421
-0.532782
-1.23087
-1.46766
8.16529
51.4183
100.964
294.048
294.055
305.579
434.831
574.835
540.282
516.387
530.266
504.991
201.126
16.8228
-0.202032
-0.482763
-0.984893
-1.34217
-1.84824
-0.67992
27.7869
91.5918
294.029
334.955
530.477
637.304
603.019
565.095
535.858
510.991
290.75
30.0378
0.143282
-0.772836
-0.895508
-1.08951
-1.46443
-2.0654
-2.15099
15.1047
74.5017
552.814
663.161
694.38
670.073
629.692
586.786
551.26
451.202
100.956
0.778866
-0.876969
-0.947435
-0.935791
-1.09414
-1.55861
-2.31076
-2.97066
3.47464
46.4257
1919.68
1920.5
1920.55
1920.08
1919.27
1918.27
1917.16
1915.96
1914.7
1913.38
1911.98
1910.5
1908.91
1907.16
1905.12
1902.57
1899.06
1893.82
1884.99
1869.64
1838.09
1777.7
1625
1910.61
1911.47
1911.52
1910.96
1910.01
1908.81
1907.41
1905.83
1904.06
1902.07
1899.83
1897.29
1894.35
1890.87
1886.61
1881.19
1873.98
1864.07
1850.05
1829.65
1800.27
1759.22
1709.37
1899.27
1900.12
1900.06
1899.35
1898.21
1896.76
1894.99
1892.91
1890.48
1887.67
1884.42
1880.65
1876.25
1871.02
1864.74
1857.03
1847.41
1835.22
1819.56
1799.15
1772.55
1736.74
1692
1885.81
1886.55
1886.29
1885.34
1883.95
1882.16
1879.93
1877.22
1874
1870.22
1865.82
1860.7
1854.73
1847.74
1839.49
1829.67
1817.88
1803.59
1786.16
1764.81
1738.7
1706.86
1669.62
1870.59
1871.14
1870.55
1869.28
1867.57
1865.36
1862.56
1859.11
1854.98
1850.13
1844.48
1837.94
1830.37
1821.62
1811.46
1799.65
1785.87
1769.73
1750.83
1728.69
1702.92
1673.11
1639.31
1854
1854.28
1853.29
1851.65
1849.54
1846.81
1843.33
1839.05
1833.94
1827.95
1820.99
1812.97
1803.77
1793.22
1781.15
1767.32
1751.5
1733.36
1712.59
1688.83
1661.79
1631.12
1596.99
1836.49
1836.37
1834.92
1832.91
1830.35
1827.04
1822.83
1817.68
1811.56
1804.41
1796.16
1786.69
1775.89
1763.6
1749.64
1733.84
1715.98
1695.79
1672.91
1646.97
1617.35
1583.03
1543.99
1818.76
1818.15
1816.25
1813.92
1810.96
1807.03
1802.07
1796.06
1788.96
1780.71
1771.22
1760.4
1748.1
1734.15
1718.34
1700.51
1680.28
1657.42
1631.59
1602.5
1560.96
1486.03
1343.29
1800.34
1800
1798.17
1795.18
1791.63
1787
1781.22
1774.27
1766.09
1756.6
1745.69
1733.29
1719.23
1703.29
1679.76
1638.78
1569.64
1463.48
1313.76
1105.88
808.522
507.956
136.271
1781.12
1733.75
1743.44
1736.38
1723.64
1704.27
1677.89
1642.13
1595.3
1534.53
1456.8
1359.72
1240.85
1096.73
901.617
690.595
485.611
299.48
142.942
3.37298
0.230336
0.128808
0.159325
1003.55
674.397
712.448
688.756
647.289
592.633
527.729
455.523
378.926
299.988
221.215
146.228
77.9823
14.9557
0.297557
0.200186
0.1784
0.169671
0.169465
0.194845
0.156084
0.127317
0.107405
0.235286
0.196664
0.189967
0.184362
0.18141
0.17977
0.178534
0.177452
0.175993
0.174097
0.171747
0.169145
0.167382
0.171015
0.176226
0.167807
0.155785
0.142897
0.129656
0.115475
0.0971795
0.0750298
0.052319
0.151142
0.158194
0.168249
0.170957
0.170827
0.170167
0.169231
0.167845
0.165994
0.163719
0.16092
0.157509
0.15367
0.149398
0.143684
0.13431
0.121032
0.104001
0.0828273
0.0572461
0.0274016
-0.00180909
-0.0251346
0.157619
0.165057
0.161473
0.161446
0.160274
0.15897
0.157185
0.154834
0.151885
0.148278
0.14388
0.138434
0.131766
0.123517
0.113013
0.0994254
0.081803
0.0587569
0.0290599
-0.00605423
-0.0430525
-0.0725267
-0.075792
0.149706
0.150371
0.149287
0.14882
0.147614
0.146004
0.143799
0.140898
0.137257
0.132686
0.1269
0.119622
0.110517
0.0991734
0.0850414
0.0671671
0.043829
0.0128408
-0.0267636
-0.0724623
-0.11489
-0.145175
0.93856
0.140761
0.140413
0.13981
0.138843
0.137393
0.135345
0.132677
0.129247
0.124898
0.119437
0.11261
0.104037
0.09331
0.0799239
0.0631214
0.0414665
0.0125045
-0.0266431
-0.0773477
-0.136827
-0.190342
-0.128022
2.26581
0.133367
0.132899
0.13205
0.130808
0.12908
0.126755
0.123772
0.120016
0.115324
0.109509
0.102309
0.0933695
0.0822567
0.0683857
0.05081
0.0277801
-0.00356154
-0.0470495
-0.105779
-0.176205
-0.241436
-0.195136
1.82176
0.127061
0.126681
0.12577
0.124364
0.122532
0.120197
0.117257
0.113596
0.109069
0.103506
0.0966765
0.0882998
0.0780094
0.0652775
0.0492342
0.0283811
8.05156e-05
-0.0398582
-0.0947535
-0.160745
-0.226818
-0.292427
-0.308229
0.121828
0.121372
0.120489
0.119178
0.117454
0.115295
0.112602
0.109262
0.105157
0.100152
0.0940905
0.0867889
0.0780105
0.0673997
0.0544307
0.0382446
0.0170473
-0.0122137
-0.0517043
-0.0992987
-0.150989
-0.20945
-0.278757
0.117275
0.116746
0.115894
0.114742
0.1132
0.111246
0.108813
0.105819
0.102181
0.0978056
0.0925911
0.0864311
0.0791872
0.0706682
0.0606619
0.0488457
0.0343348
0.015508
-0.00858562
-0.0365217
-0.0671709
-0.105621
-0.156102
0.11272
0.112329
0.111609
0.110603
0.109239
0.107479
0.105285
0.102614
0.0994153
0.0956248
0.091175
0.0859974
0.0800035
0.0730835
0.0651498
0.0560952
0.0455354
0.032757
0.0175702
0.00110333
-0.0164238
-0.0399066
-0.07419
0.10824
0.108009
0.107445
0.106564
0.105342
0.103755
0.101779
0.0993936
0.096569
0.093265
0.0894372
0.085036
0.0799971
0.0742484
0.0677343
0.060385
0.0519944
0.0422621
0.0312819
0.0197991
0.0076899
-0.00828098
-0.0307729
0.103821
0.103618
0.103107
0.102292
0.10116
0.0997029
0.0979072
0.095756
0.09323
0.0903052
0.0869503
0.0831244
0.0787791
0.073867
0.0683483
0.0621576
0.0551501
0.0471765
0.0383577
0.0290893
0.0191143
0.00661071
-0.00947637
0.098991
0.0987552
0.0982193
0.0974166
0.0963382
0.094979
0.093326
0.0913646
0.0890772
0.0864452
0.0834453
0.0800467
0.0762131
0.0719107
0.0671108
0.0617682
0.0557933
0.0491072
0.0417895
0.0340411
0.0256761
0.0157458
0.00382943
0.093394
0.093136
0.0925924
0.0918102
0.0907893
0.0895197
0.0879912
0.086191
0.084104
0.0817147
0.0790053
0.075953
0.0725312
0.0687146
0.0644818
0.059804
0.054632
0.0489273
0.0427356
0.036159
0.029092
0.0210367
0.0117902
0.0871811
0.0869175
0.0864019
0.0856745
0.0847288
0.0835547
0.0821478
0.0804969
0.0785912
0.0764191
0.0739668
0.0712178
0.0681545
0.0647611
0.0610244
0.0569267
0.0524405
0.0475472
0.0422772
0.0366943
0.0307481
0.0241548
0.0167594
0.0806903
0.0804458
0.0799896
0.079339
0.0784791
0.0774094
0.0761257
0.0746204
0.0728872
0.0709187
0.0687055
0.0662365
0.0635004
0.0604872
0.0571892
0.0535963
0.0496933
0.0454715
0.0409525
0.0361824
0.0311452
0.0256734
0.019636
0.0741984
0.0739968
0.073612
0.0730421
0.0722749
0.0713153
0.070157
0.0687984
0.0672374
0.065469
0.063487
0.0612844
0.0588539
0.0561891
0.0532851
0.0501366
0.0467359
0.0430799
0.0391854
0.0350878
0.030787
0.0261792
0.0211566
0.0678568
0.0676995
0.067369
0.0668671
0.0661904
0.0653371
0.0643049
0.0630945
0.0617044
0.0601307
0.0583691
0.0564157
0.0542666
0.0519185
0.0493695
0.0466167
0.0436554
0.0404842
0.0371161
0.0335797
0.0298844
0.0259639
0.0217302
0.0616527
0.0615277
0.0612384
0.0607977
0.0602058
0.0594564
0.0585505
0.0574867
0.0562627
0.0548766
0.0533262
0.0516084
0.0497204
0.0476612
0.045431
0.0430296
0.0404547
0.0377055
0.0347916
0.0317359
0.028552
0.0251981
0.0216044
0.0554552
0.0553396
0.0550885
0.0547063
0.0541923
0.0535445
0.0527613
0.0518395
0.0507779
0.0495765
0.0482341
0.0467474
0.045113
0.0433298
0.041399
0.0393221
0.0370991
0.0347299
0.0322216
0.0295917
0.0268541
0.0239828
0.0209265
0.0492016
0.0490944
0.0488839
0.0485589
0.0481211
0.047572
0.0469064
0.0461218
0.0452181
0.0441954
0.0430519
0.0417849
0.0403915
0.0388704
0.0372228
0.0354509
0.0335558
0.0315377
0.0294012
0.0271597
0.0248247
0.0223805
0.019793
0.042856
0.0427671
0.0425944
0.0423281
0.0419701
0.0415187
0.0409697
0.0403215
0.0395734
0.0387239
0.0377713
0.0367142
0.0355507
0.0342798
0.0329018
0.0314185
0.029831
0.0281391
0.0263461
0.024462
0.0224961
0.0204397
0.0182732
0.0364897
0.036428
0.0362876
0.0360757
0.0357907
0.035428
0.0349871
0.0344659
0.0338622
0.0331739
0.0324004
0.0315412
0.0305953
0.0295616
0.0284397
0.0272302
0.0259335
0.0245488
0.0230775
0.0215271
0.0199049
0.0182068
0.016425
0.0301125
0.0300719
0.029964
0.029802
0.0295834
0.0293043
0.0289652
0.0285633
0.0280958
0.0275608
0.0269575
0.0262857
0.0255444
0.0247325
0.0238496
0.0228959
0.0218719
0.0207763
0.0196089
0.0183744
0.0170774
0.0157164
0.0142911
0.0237504
0.0237215
0.0236442
0.0235252
0.0233658
0.0231632
0.0229168
0.0226246
0.0222847
0.0218951
0.0214544
0.0209615
0.0204152
0.0198139
0.0191566
0.0184434
0.0176749
0.0168499
0.015968
0.0150313
0.014042
0.0129987
0.0119058
0.0174067
0.0173922
0.0173526
0.0172791
0.0171791
0.017049
0.0168897
0.0167
0.0164784
0.0162229
0.0159324
0.0156063
0.0152434
0.0148414
0.014398
0.0139122
0.0133837
0.0128117
0.0121958
0.0115372
0.010836
0.0100908
0.00930826
0.0110143
0.0110126
0.0110119
0.0109842
0.0109436
0.010887
0.0108167
0.0107315
0.0106286
0.0105056
0.0103616
0.0101964
0.0100094
0.0097983
0.00956034
0.00929323
0.00899571
0.00866663
0.00830494
0.00791046
0.00748241
0.00701954
0.00652836
0.00456681
0.00456586
0.00458762
0.00459335
0.00460476
0.00461552
0.0046289
0.00464321
0.00465595
0.00466465
0.00466746
0.00466287
0.00464911
0.00462385
0.00458446
0.00452874
0.00445504
0.0043617
0.00424671
0.00410845
0.00394521
0.00375534
0.0035433
-0.00183174
-0.00183995
-0.00180257
-0.00177432
-0.00172045
-0.00165293
-0.0015686
-0.00146859
-0.00135428
-0.00122753
-0.00109073
-0.000946657
-0.000798173
-0.000648124
-0.000499294
-0.000354197
-0.000215019
-8.40761e-05
3.58695e-05
0.000142145
0.000232235
0.000303771
0.000358856
-0.00821669
-0.00823521
-0.00819647
-0.00817387
-0.0080957
-0.00798313
-0.00783502
-0.00765344
-0.00744057
-0.00719909
-0.00693246
-0.00664445
-0.00633876
-0.00601877
-0.00568777
-0.0053489
-0.00500508
-0.00465929
-0.00431476
-0.00397463
-0.00364172
-0.0033186
-0.00300525
-0.0146321
-0.0150069
-0.0150201
-0.0150212
-0.0149205
-0.0147557
-0.0145326
-0.0142569
-0.013933
-0.0135653
-0.0131586
-0.0127171
-0.0122449
-0.0117455
-0.0112225
-0.0106802
-0.0101224
-0.00955302
-0.00897597
-0.008395
-0.00781349
-0.00723456
-0.00666016
1100.24
1438.49
1419.58
1156.85
1541.39
1455.09
1390.23
1207.15
1550.46
1421.84
1343.2
1206.15
1572.77
1439.16
1327.44
1198.14
1555.3
1411.06
1273.23
1091.74
1513.02
1355.04
952.83
294.95
1420.32
738.183
39.5203
-0.18717
533.443
0.847583
-0.00953686
-0.293016
0.240061
0.108422
-0.109386
-0.292212
0.123084
0.0383689
-0.134669
-0.284786
0.0667135
-0.000685339
-0.148873
-0.26069
0.000414382
-0.0138554
-0.150884
-0.238078
-0.0636585
0.17289
-0.169553
-0.236047
-0.0626706
3.31918
-0.224702
-0.247532
2.56482
4.10733
-0.285297
-0.266226
4.34703
4.13864
-0.338198
-0.28319
4.40186
2.87157
-0.362826
-0.290777
0.144138
1.25291
-0.3436
-0.28051
-0.353297
0.36641
-0.285087
-0.252509
-0.232654
-0.221674
-0.214393
-0.214541
-0.146111
-0.164387
-0.160289
-0.17667
-0.0786738
-0.105374
-0.12485
-0.144583
-0.0433737
-0.0728745
-0.0984538
-0.118591
-0.0218642
-0.0508412
-0.0769926
-0.0969027
-0.00852309
-0.0351696
-0.0595949
-0.0788661
0.00015058
-0.0236528
-0.0456982
-0.0639044
0.00586196
-0.0150187
-0.0346539
-0.0515151
0.00960385
-0.00852713
-0.0258777
-0.0412511
0.0119604
-0.00369112
-0.0189179
-0.032755
0.0133077
-0.00014622
-0.0134261
-0.0257407
0.013882
0.00237661
-0.00912504
-0.0199716
0.0138435
0.00407635
-0.00580185
-0.0152542
0.0133045
0.00510241
-0.00328839
-0.011427
0.0123477
0.00556793
-0.00145314
-0.00835804
0.0110329
0.00555858
-0.000193626
-0.00593864
0.00940633
0.00514136
0.000573256
-0.00407673
0.00751514
0.00437511
0.000916781
-0.0026956
0.0053938
0.00330832
0.000895301
-0.0017305
0.00303496
0.00195929
0.00054848
-0.00112925
0.000451565
0.000344781
-9.60379e-05
-0.000852483
-0.00233168
-0.00150566
-0.00100466
-0.000861153
-0.00539844
-0.00362858
-0.00218218
-0.00113948
829.347
772.659
769.148
729.579
673.316
622.863
522.199
221.14
1.70391
-1.00037
-0.999801
-0.933088
-0.918842
-1.10054
-1.65108
-2.63286
-3.65583
-5.69468
14.5839
987.564
879.167
834.523
782.708
719.939
521.722
85.4716
-0.753968
-1.02749
-0.988297
-0.938685
-0.905367
-0.894376
-1.08894
-1.62292
-2.64473
-3.85866
-7.55388
7.61118
1042.38
933.279
878.813
735.667
333.171
0.000295584
-0.969625
-1.02086
-0.998816
-0.94358
-0.889475
-0.860659
-0.87367
-1.02188
-1.41076
-2.19353
-3.38852
-4.71554
3.75369
1070.09
916.63
608.732
74.4032
-0.818329
-0.955474
-0.994375
-0.967519
-0.927957
-0.883997
-0.840387
-0.812587
-0.818177
-0.897279
-1.0873
-1.43664
-1.83563
-1.01953
2.38946
767.947
201.863
-0.511753
-0.867653
-0.942956
-0.952812
-0.930128
-0.904597
-0.862965
-0.822503
-0.783727
-0.752662
-0.740092
-0.758221
-0.804543
-0.844812
-0.67965
0.242013
1.58484
0.168377
-0.728133
-0.782845
-0.85289
-0.881678
-0.884888
-0.873794
-0.843549
-0.801524
-0.761381
-0.722268
-0.685964
-0.655427
-0.629407
-0.590902
-0.484596
-0.171648
0.465289
0.999233
-0.488694
-0.673209
-0.74827
-0.802707
-0.834757
-0.839243
-0.816212
-0.779558
-0.739349
-0.700423
-0.660368
-0.618911
-0.574408
-0.520219
-0.437528
-0.281388
0.0231254
0.448947
0.696922
-0.467386
-0.618737
-0.711686
-0.765082
-0.783032
-0.774549
-0.747385
-0.71315
-0.6775
-0.640657
-0.600252
-0.554928
-0.501356
-0.431797
-0.330578
-0.169179
0.0854287
0.382228
0.512732
-0.45129
-0.578686
-0.662281
-0.695841
-0.70628
-0.696995
-0.675718
-0.648454
-0.617844
-0.583226
-0.543096
-0.495745
-0.437647
-0.36205
-0.257911
-0.109949
0.0909926
0.297251
0.373081
-0.417223
-0.508735
-0.576099
-0.612517
-0.626097
-0.623124
-0.609199
-0.58811
-0.561462
-0.528991
-0.489794
-0.442235
-0.383267
-0.307856
-0.20929
-0.0810485
0.0748931
0.220197
0.269263
-0.363835
-0.44473
-0.504386
-0.539986
-0.556499
-0.558428
-0.549528
-0.532603
-0.508929
-0.478555
-0.440896
-0.394611
-0.337392
-0.265951
-0.176883
-0.0688288
0.0520155
0.157176
0.192081
-0.331447
-0.398337
-0.44911
-0.48138
-0.498188
-0.502188
-0.496044
-0.481807
-0.460484
-0.432214
-0.396595
-0.352656
-0.298864
-0.233403
-0.155118
-0.0653676
0.0286678
0.106499
0.132831
-0.312004
-0.365062
-0.406376
-0.433593
-0.448617
-0.45283
-0.448023
-0.435577
-0.4162
-0.390027
-0.356803
-0.315912
-0.266496
-0.20784
-0.140193
-0.0661447
0.00755891
0.0663011
0.0868101
-0.301613
-0.340207
-0.371821
-0.393389
-0.40568
-0.409161
-0.404888
-0.393678
-0.375982
-0.351892
-0.321267
-0.283811
-0.239189
-0.187438
-0.129598
-0.0686446
-0.0103847
0.0347433
0.0510008
-0.295761
-0.320269
-0.342511
-0.358549
-0.367859
-0.370227
-0.366078
-0.355789
-0.339599
-0.317567
-0.28964
-0.255763
-0.21599
-0.17083
-0.121697
-0.071516
-0.0250693
0.0101311
0.0231464
-0.29001
-0.30225
-0.316315
-0.327453
-0.333995
-0.335224
-0.331047
-0.321533
-0.30675
-0.286732
-0.26151
-0.231196
-0.196102
-0.157002
-0.115432
-0.0740596
-0.036735
-0.00892503
0.0015561
-0.280171
-0.283609
-0.291534
-0.298853
-0.303177
-0.303474
-0.299295
-0.290513
-0.277092
-0.259041
-0.236461
-0.209578
-0.178863
-0.145208
-0.110122
-0.0759413
-0.0457339
-0.0235284
-0.0150566
-0.263063
-0.262648
-0.267
-0.271874
-0.274719
-0.274424
-0.270387
-0.262365
-0.250281
-0.234144
-0.214097
-0.190446
-0.16374
-0.134903
-0.105338
-0.0770358
-0.0524382
-0.0345536
-0.027691
-0.2389
-0.239047
-0.242267
-0.246045
-0.24817
-0.247672
-0.243961
-0.236768
-0.226007
-0.211713
-0.194062
-0.173403
-0.150315
-0.125698
-0.100813
-0.0773345
-0.0572019
-0.0426971
-0.0371331
-0.210521
-0.2137
-0.217538
-0.221263
-0.223297
-0.222952
-0.219735
-0.21344
-0.20399
-0.191454
-0.176041
-0.158121
-0.138266
-0.117319
-0.0963964
-0.0768901
-0.0603442
-0.0485156
-0.0440061
-0.18148
-0.188136
-0.193392
-0.197669
-0.200028
-0.20009
-0.197505
-0.192146
-0.183984
-0.173116
-0.159769
-0.144331
-0.127344
-0.109577
-0.0920051
-0.075784
-0.0621436
-0.052456
-0.0488074
-0.154755
-0.163832
-0.170478
-0.175496
-0.178377
-0.178985
-0.17711
-0.1727
-0.165778
-0.156474
-0.145023
-0.131814
-0.117357
-0.102338
-0.0876007
-0.0741063
-0.0628376
-0.0548779
-0.0519349
-0.131343
-0.141626
-0.149277
-0.154948
-0.158382
-0.159571
-0.158421
-0.15494
-0.14919
-0.141334
-0.13161
-0.12039
-0.108154
-0.0955044
-0.0831686
-0.0719455
-0.0626256
-0.0560709
-0.0537078
-0.110945
-0.121743
-0.129999
-0.136135
-0.140051
-0.141787
-0.141326
-0.138724
-0.134064
-0.12753
-0.119364
-0.109911
-0.0996154
-0.0890071
-0.0787076
-0.0693829
-0.0616727
-0.0562679
-0.0543817
-0.0932347
-0.104129
-0.112656
-0.119068
-0.123353
-0.125563
-0.125725
-0.123924
-0.120259
-0.114917
-0.108143
-0.100251
-0.091646
-0.0827933
-0.0742223
-0.0664893
-0.0601145
-0.055656
-0.0541626
-0.0779311
-0.0886247
-0.0971665
-0.103691
-0.10822
-0.110815
-0.111517
-0.110424
-0.10765
-0.103371
-0.0978273
-0.0913073
-0.0841695
-0.0768236
-0.0697204
-0.063325
-0.0580625
-0.0543862
-0.0532167
-0.0648197
-0.0750622
-0.0834133
-0.0899074
-0.0945663
-0.0974473
-0.0986
-0.0981174
-0.0961239
-0.092782
-0.0883172
-0.0829924
-0.0771237
-0.0710683
-0.065211
-0.0599415
-0.0556086
-0.0525815
-0.0516792
-0.0535897
-0.0632548
-0.0712649
-0.0776072
-0.0822931
-0.0853641
-0.0868752
-0.0869057
-0.0855822
-0.0830542
-0.0795256
-0.0752344
-0.0704576
-0.0655048
-0.0607043
-0.0563833
-0.0528291
-0.0503425
-0.0496606
-0.0440428
-0.0530212
-0.0605809
-0.0666719
-0.0712944
-0.0744671
-0.0762454
-0.0766951
-0.0759351
-0.0741026
-0.071378
-0.0679733
-0.0641306
-0.0601167
-0.0562109
-0.0526888
-0.0497878
-0.0477522
-0.0472516
-0.0359475
-0.0441804
-0.0512158
-0.0569794
-0.061461
-0.0646574
-0.0666177
-0.0673974
-0.067101
-0.0658527
-0.0638099
-0.0611589
-0.0581099
-0.0548916
-0.0517413
-0.0488912
-0.0465378
-0.0448789
-0.0445274
-0.0291006
-0.0365758
-0.0430279
-0.0484086
-0.052685
-0.0558377
-0.0579035
-0.0589301
-0.059005
-0.0582379
-0.0567652
-0.0547481
-0.052368
-0.04982
-0.047305
-0.0450186
-0.0431239
-0.0417795
-0.0415504
-0.0233233
-0.0300209
-0.0358805
-0.0408424
-0.0448627
-0.0479142
-0.0500185
-0.0512159
-0.0515775
-0.0511976
-0.0501934
-0.048703
-0.0468811
-0.0448935
-0.0429098
-0.0410947
-0.0395835
-0.0385013
-0.0383724
-0.0184691
-0.0243883
-0.0296525
-0.0341716
-0.0378969
-0.0407979
-0.0428825
-0.0441821
-0.0447534
-0.0446758
-0.0440486
-0.0429889
-0.0416277
-0.0401046
-0.0385625
-0.0371395
-0.0359478
-0.0350835
-0.0350363
-0.0144179
-0.019581
-0.0242378
-0.0282961
-0.0316964
-0.0344052
-0.036419
-0.0377597
-0.0384716
-0.03862
-0.0382883
-0.0375743
-0.0365879
-0.035446
-0.034268
-0.0331694
-0.0322428
-0.0315585
-0.0315773
-0.0110602
-0.0154887
-0.0195395
-0.0231247
-0.0261768
-0.0286583
-0.0305565
-0.0318842
-0.0326751
-0.032982
-0.0328734
-0.0324303
-0.0317435
-0.0309104
-0.0300298
-0.0291974
-0.0284892
-0.0279526
-0.0280243
-0.00830096
-0.0120165
-0.0154698
-0.018575
-0.0212609
-0.0234855
-0.0252289
-0.0264959
-0.0273113
-0.0277169
-0.0277677
-0.0275297
-0.0270773
-0.0264902
-0.0258494
-0.0252334
-0.0247038
-0.0242869
-0.0244002
-0.00606053
-0.00908483
-0.0119511
-0.0145737
-0.0168794
-0.0188216
-0.0203757
-0.02154
-0.0223318
-0.022783
-0.0229373
-0.022847
-0.0225721
-0.0221771
-0.0217269
-0.0212846
-0.0208997
-0.0205784
-0.0207235
-0.00427049
-0.00662444
-0.00891598
-0.0110564
-0.0129703
-0.014608
-0.0159417
-0.0169657
-0.0176911
-0.0181415
-0.01835
-0.0183578
-0.0182117
-0.0179624
-0.0176608
-0.017356
-0.0170871
-0.016841
-0.0170081
-0.0028724
-0.00457656
-0.00630692
-0.00796685
-0.00947862
-0.0107909
-0.011876
-0.0127257
-0.0133464
-0.0137548
-0.0139752
-0.0140382
-0.0139794
-0.0138367
-0.013648
-0.01345
-0.0132731
-0.0130855
-0.013264
-0.00181817
-0.00289045
-0.00407599
-0.00525757
-0.00635622
-0.00732292
-0.00813257
-0.00877689
-0.00925893
-0.00958952
-0.0097853
-0.00986757
-0.00986101
-0.00979203
-0.00968654
-0.00956979
-0.00946496
-0.00932449
-0.00949862
-0.00106283
-0.00151692
-0.00218101
-0.0028861
-0.00355813
-0.00415751
-0.0046654
-0.00507517
-0.00538774
-0.00560905
-0.00574876
-0.00581939
-0.00583548
-0.00581246
-0.0057653
-0.00570841
-0.00565849
-0.00555876
-0.00571123
-0.000583605
-0.000434953
-0.000603058
-0.000832115
-0.0010581
-0.00126604
-0.00144693
-0.00159698
-0.00171547
-0.00180366
-0.00186428
-0.00190118
-0.00191889
-0.00192232
-0.00191613
-0.00190442
-0.00189678
-0.00185746
-0.00192614
)
;

boundaryField
{
    leftWall
    {
        type            fixedFluxPressure;
        gradient        uniform 0;
        value           nonuniform List<scalar> 
50
(
1935.02
1934.68
1933.98
1932.91
1931.47
1929.62
1927.35
1924.65
1919.68
1910.61
1899.27
1885.81
1870.59
1854
1836.49
1818.76
1800.34
1781.12
1003.55
0.235286
0.151142
0.157619
0.149706
0.140761
0.133367
0.127061
0.121828
0.117275
0.11272
0.10824
0.103821
0.098991
0.093394
0.0871811
0.0806903
0.0741984
0.0678568
0.0616527
0.0554552
0.0492016
0.042856
0.0364897
0.0301125
0.0237504
0.0174067
0.0110143
0.00456681
-0.00183174
-0.00821669
-0.0146321
)
;
    }
    rightWall
    {
        type            fixedFluxPressure;
        gradient        uniform 0;
        value           nonuniform List<scalar> 
50
(
100.139
100.209
100.632
101.249
100.964
91.5918
74.5017
46.4257
14.5839
7.61118
3.75369
2.38946
1.58484
0.999233
0.696922
0.512732
0.373081
0.269263
0.192081
0.132831
0.0868101
0.0510008
0.0231464
0.0015561
-0.0150566
-0.027691
-0.0371331
-0.0440061
-0.0488074
-0.0519349
-0.0537078
-0.0543817
-0.0541626
-0.0532167
-0.0516792
-0.0496606
-0.0472516
-0.0445274
-0.0415504
-0.0383724
-0.0350363
-0.0315773
-0.0280243
-0.0244002
-0.0207235
-0.0170081
-0.013264
-0.00949862
-0.00571123
-0.00192614
)
;
    }
    lowerWall
    {
        type            fixedFluxPressure;
        gradient        uniform 0;
        value           nonuniform List<scalar> 
62
(
1935.02
1935.51
1935.39
1934.95
1934.36
1933.69
1932.99
1932.3
1931.68
1931.19
1930.91
1930.93
1931.34
1932.29
1933.82
1935.93
1938.54
1941.53
1944.68
1947.72
1950.38
1952.49
1953.8
1953.8
1955.45
1954.73
1951.31
1944.24
1931.66
1903.22
1847.24
1100.24
1438.49
1419.58
1156.85
294.054
294.072
294.109
294.111
294.084
294.048
294.029
552.814
294.054
293.906
293.651
293.065
290.719
287.342
308.52
609.115
1255.71
1073.75
576.346
274.845
174.065
166.224
163.949
117.675
100.602
98.6819
100.139
)
;
    }
    atmosphere
    {
        type            totalPressure;
        rho             rho;
        psi             none;
        gamma           1;
        p0              uniform 0;
        value           nonuniform List<scalar> 
46
(
-0.0173145
-0.019149
-0.0189999
-0.0189273
-0.0187752
-0.0185555
-0.0182731
-0.0179328
-0.0175388
-0.0170951
-0.0166055
-0.0160741
-0.015505
-0.0149024
-0.0142706
-0.0136138
-0.0129366
-0.0122431
-0.0115377
-0.0108246
-0.010108
-0.00939217
-0.00867947
-0.00710134
-0.0048344
-0.00290583
-0.00141634
-0.000496285
-5.9858e-05
0
0
0
0
0
0
0
0
0
0
0
0
0
0
0
0
0
)
;
    }
    defaultFaces
    {
        type            empty;
    }
}


// ************************************************************************* //
