/*--------------------------------*- C++ -*----------------------------------*\
| =========                 |                                                 |
| \\      /  F ield         | OpenFOAM: The Open Source CFD Toolbox           |
|  \\    /   O peration     | Version:  2206                                  |
|   \\  /    A nd           | Website:  www.openfoam.com                      |
|    \\/     M anipulation  |                                                 |
\*---------------------------------------------------------------------------*/
FoamFile
{
    version     2.0;
    format      ascii;
    arch        "LSB;label=32;scalar=64";
    class       volScalarField;
    location    "0.7";
    object      alpha.water;
}
// * * * * * * * * * * * * * * * * * * * * * * * * * * * * * * * * * * * * * //

dimensions      [0 0 0 0 0 0 0];

internalField   nonuniform List<scalar> 
2268
(
1
1
1
1
1
1
1
1
1
1
1
1
1
1
1
1
1
1
1
0.999996
0.999998
0.999998
0.943943
1
1
1
1
1
1
1
1
1
1
1
1
1
1
1
1
1
1
1
0.999992
0.999996
0.999998
0.906964
1
1
1
1
1
1
1
1
1
1
1
1
1
1
1
1
1
1
1
1
1
0.959303
0.897039
1
1
1
1
1
1
1
1
1
1
1
1
1
1
1
1
1
1
1
1
1
0.992086
0.95208
1
1
1
1
1
1
1
1
1
1
1
1
1
1
1
1
1
1
1
1
1
1
0.999993
1
1
1
1
1
1
1
1
1
1
1
1
1
1
1
1
1
1
1
1
1
0.999999
0.999988
1
1
0.999998
0.999996
1
1
1
1
1
1
1
1
1
1
1
1
1
1
1
1
0.999999
0.999994
0.999986
1
1
0.999709
0.997667
1
1
1
1
1
1
1
0.990362
0.963397
0.924009
0.875552
0.824511
0.778417
0.747031
0.724935
0.736358
0.730857
0.698659
0.725087
0.417924
0.417924
0.365699
0.0983435
0.0961866
0.182839
0.183035
0.149885
0.280129
0.458931
0.459197
0.459286
0.459283
0.459285
0.444345
0.411525
0.412861
0.412676
0.409004
0.417924
0.257591
0.032075
0.0177338
0.0315317
0.183002
0.143119
0.0348375
0.0469588
0.0950021
0.0950486
0.239245
0.459285
0.323466
0.0193054
0.0188417
0.0187781
0.248645
0.408432
0.373108
0.0325164
0.0157315
0.0161523
0.0474952
0.120538
0.0410259
0.00177318
0.00442238
0.00531026
0.157812
0.239336
0.035409
0.0260638
0.0377214
0.0244247
0.0139065
0.0226258
0.357411
0.28912
0.0157315
0.0157315
0.0530804
0.0943182
0.0371211
0.00270371
0.00019389
0.00529471
0.103551
0.158884
0.0774349
0.0352301
0.0422907
0.0566984
0.0566984
0.0156223
0.00557
0.308447
0.289053
0.0175457
0.0157315
0.0987269
0.0968558
0.0217852
1.84871e-05
6.10339e-05
0.0145266
0.109199
0.107892
0.00211849
0.0369664
0.0560343
0.0566984
0.0566859
0.0237992
0.00487911
0.309045
0.219328
0.0324669
0.09985
0.101788
0.0659056
0.000917678
4.61504e-06
2.12608e-05
0.0231071
0.109214
0.00717988
0.0014669
0.0207903
0.0554644
0.0387052
0.0215891
0.0171778
0.00453777
0.30846
0.148872
0.211079
0.211079
0.0841705
1.40675e-09
4.83772e-08
2.47441e-06
4.61474e-06
0.0304944
0.108278
0.00155896
0.00140793
0.0257459
0.010882
3.24719e-05
3.17342e-05
0.00595536
0.00173611
0.284029
0.237417
0.210521
0.0248905
2.68776e-11
1.27236e-10
1.40678e-09
4.83773e-08
1.90513e-06
0.0196641
0.0630202
0.00150674
0.00135821
0.00999722
3.52205e-05
3.17032e-05
3.1754e-05
0.00105303
0.00150385
0.0532271
1
1
1
1
1
1
1
0.924728
0.766662
0.560309
0.406982
0.298093
0.209497
0.138571
0.0844335
0.0461619
0.02119
0.00295099
0.000123184
0.00542407
0.00786466
0.0230308
0.0891063
1
1
1
0.919831
0.776113
0.563295
0.333416
0.157922
0.0399777
3.99593e-06
1.86964e-09
7.8668e-09
3.3209e-10
1.95363e-11
2.37464e-12
2.62786e-10
6.27435e-10
3.26342e-09
3.52822e-07
3.787e-06
4.15959e-06
2.25024e-07
1.92849e-07
0.831434
0.733832
0.499266
0.267523
0.108498
0.0283033
0.000978604
1.80479e-11
9.58011e-13
9.84677e-14
1.84285e-09
7.3532e-10
5.31476e-10
7.53985e-12
1.18733e-12
6.35935e-08
5.67681e-07
6.03315e-07
5.62381e-07
7.48164e-08
1.4991e-07
2.84107e-06
1.1388e-06
0.129689
0.0567496
0.00832946
8.87826e-09
1.26064e-10
4.37476e-09
-3.368e-11
1.82027e-12
9.61204e-14
5.04078e-14
2.85865e-08
3.7043e-08
3.69645e-08
5.80039e-09
-9.47814e-27
1.86228e-07
6.42343e-07
6.63283e-07
6.19626e-07
1.31923e-08
1.62986e-09
4.20701e-08
6.31986e-09
2.99409e-06
3.75816e-07
5.3521e-07
1.26037e-10
-6.31223e-20
2.30795e-09
-9.35933e-12
2.37082e-09
4.27135e-11
2.12246e-34
1.35197e-45
1.28206e-23
1.40418e-17
-1.50014e-15
-3.53734e-15
6.54866e-12
1.23546e-09
7.03154e-09
1.37638e-08
2.15179e-10
6.76636e-12
1.04974e-10
5.40419e-15
2.92537e-07
3.01189e-07
5.18749e-09
-2.08658e-16
-4.52946e-14
-1.64371e-15
-1.72373e-16
-2.54848e-17
-5.53099e-18
-3.92994e-17
-2.32734e-16
-8.71755e-16
-2.15899e-15
-4.03507e-15
-6.19598e-15
-8.04465e-24
7.45253e-16
3.57672e-14
9.08084e-14
1.36777e-14
5.2304e-15
2.44249e-13
3.3268e-15
1.19705e-08
1.26483e-08
6.51876e-18
6.73417e-18
1.79348e-16
4.90876e-18
2.78723e-19
-3.44877e-20
-6.01231e-18
-7.55034e-17
-3.10347e-16
-8.34668e-16
-1.69116e-15
-2.75171e-15
-3.76924e-15
-4.51518e-15
-2.29464e-19
0
0
7.65998e-16
0
-2.29514e-15
-1.61682e-15
3.91165e-10
2.55294e-11
3.31748e-18
3.2193e-18
3.84502e-18
6.09361e-20
-4.05592e-45
-2.27319e-19
-9.04436e-18
-3.96647e-17
-1.07754e-16
-2.20141e-16
-3.61922e-16
-5.00029e-16
-6.0229e-16
-6.51858e-16
-6.46488e-16
-5.66335e-16
-4.53942e-16
-3.94176e-16
-2.38095e-16
-4.92523e-17
1.79682e-16
4.70052e-11
2.16789e-11
1.67543e-18
1.69148e-18
1.56882e-19
5.27617e-21
2.05676e-24
-4.05487e-19
-2.31243e-18
-7.28412e-18
-1.6654e-17
-2.96899e-17
-4.32471e-17
-5.36965e-17
-5.8808e-17
-5.80169e-17
-5.18986e-17
-4.0358e-17
-2.10912e-17
-7.9257e-19
4.97476e-17
1.90252e-16
5.47237e-16
3.36316e-12
1.40159e-12
1.40298e-14
1.56351e-16
3.93915e-20
1.04226e-21
4.51966e-24
-5.67406e-20
-2.71109e-19
-7.70835e-19
-1.56434e-18
-2.44846e-18
-3.12812e-18
-3.39846e-18
-3.18558e-18
-2.32101e-18
-7.81424e-19
1.09842e-18
7.71243e-18
2.70184e-17
7.93424e-17
2.19079e-16
5.82231e-16
2.46385e-12
1.86521e-12
2.15856e-14
9.45525e-18
8.46135e-20
2.07152e-21
6.35453e-24
-3.91678e-21
-1.86918e-20
-4.73228e-20
-8.12032e-20
-1.04801e-19
-1.01454e-19
-5.76386e-20
0
1.86534e-19
7.17253e-19
2.28076e-18
6.48181e-18
1.87346e-17
5.56641e-17
1.69582e-16
5.08899e-16
8.76231e-12
2.04552e-12
1.10091e-14
7.5298e-18
7.86277e-20
1.30644e-21
6.05475e-24
-1.09647e-22
-5.75056e-22
-1.10106e-21
-9.90132e-22
-4.52877e-23
2.31058e-21
1.15339e-20
4.19015e-20
9.16926e-20
2.45807e-19
8.13258e-19
2.84719e-18
9.71269e-18
3.21347e-17
1.13943e-16
3.8726e-16
1.27615e-11
1.85473e-12
6.0247e-15
4.31545e-18
3.23322e-20
3.93217e-22
5.8717e-24
1.70507e-24
3.7384e-24
1.60094e-23
8.20177e-23
3.55317e-22
6.43556e-22
1.8354e-21
6.45588e-21
2.45887e-20
9.70045e-20
3.79255e-19
1.37168e-18
4.78578e-18
1.81432e-17
7.92624e-17
3.06392e-16
1.32414e-11
1.42127e-12
4.05364e-15
1.86195e-18
1.25489e-20
1.31659e-22
1.72181e-24
1.79935e-25
2.17462e-25
6.8675e-25
3.76391e-24
2.05515e-23
1.11299e-22
5.29257e-22
2.24861e-21
9.18661e-21
3.66801e-20
1.4368e-19
5.33826e-19
2.13758e-18
1.03384e-17
5.50223e-17
2.35258e-16
1.22406e-11
9.97078e-13
2.33178e-15
5.21602e-19
3.50334e-21
3.74336e-23
4.039e-25
3.7599e-26
3.47744e-26
1.3676e-25
8.93266e-25
5.39363e-24
2.99003e-23
1.42739e-22
6.5155e-22
2.86474e-21
1.18201e-20
4.82913e-20
1.98673e-19
9.66048e-19
5.91558e-18
3.65966e-17
1.79226e-16
9.16274e-12
6.2819e-13
1.0174e-15
9.16694e-20
7.94039e-22
8.31645e-24
1.01814e-25
7.29135e-27
6.24481e-27
2.4097e-26
1.62394e-25
1.07752e-24
6.7009e-24
3.5605e-23
1.83201e-22
8.35883e-22
3.47784e-21
1.51972e-20
7.22592e-20
4.30738e-19
3.4684e-18
2.51809e-17
1.5093e-16
5.24978e-12
2.78361e-13
3.19679e-16
1.81348e-20
1.7086e-22
2.33878e-24
3.19792e-26
1.40751e-27
8.98211e-28
3.90636e-27
2.96373e-26
2.18713e-25
1.47681e-24
8.54095e-24
4.85028e-23
2.21799e-22
9.61883e-22
4.63881e-21
2.5412e-20
2.14043e-19
2.3359e-18
1.77593e-17
1.34757e-16
2.16758e-12
7.9934e-14
7.60257e-17
9.10408e-21
6.07981e-23
9.88677e-25
1.62592e-26
3.86571e-28
1.31718e-28
6.36895e-28
5.24218e-27
4.23069e-26
3.08969e-25
1.95665e-24
1.20765e-23
5.49725e-23
2.61359e-22
1.34561e-21
8.89823e-21
1.58682e-19
1.69339e-18
7.70929e-18
6.23261e-17
5.75543e-13
1.81855e-14
1.92001e-17
5.27965e-21
4.34648e-23
3.98301e-25
7.89689e-27
1.34387e-28
3.10483e-29
1.05705e-28
9.06062e-28
7.93911e-27
6.24034e-26
4.30062e-25
2.8188e-24
1.30252e-23
7.03955e-23
3.48852e-22
4.11825e-21
1.89756e-19
6.76282e-19
-4.87687e-18
-5.01219e-17
9.00413e-14
3.44551e-15
5.04573e-18
2.40592e-21
2.36262e-23
2.24061e-25
2.2122e-27
3.99701e-29
1.33678e-29
1.87475e-29
1.52968e-28
1.44276e-27
1.21715e-26
9.04559e-26
6.17633e-25
3.03654e-24
1.92905e-23
6.70721e-23
3.0863e-21
2.85193e-19
-1.14245e-18
-2.05239e-17
-1.1739e-16
8.95075e-15
4.78058e-16
1.02326e-18
7.30872e-22
8.32844e-24
9.20323e-26
9.92458e-28
1.35844e-29
3.05497e-30
3.03575e-30
2.52803e-29
2.54027e-28
2.29159e-27
1.82107e-26
1.26573e-25
7.85744e-25
5.52472e-24
-7.8476e-24
8.29752e-23
2.0629e-19
-3.07199e-18
-3.24986e-17
-1.50297e-16
7.12306e-16
4.85853e-17
1.37064e-19
1.41168e-22
1.81794e-24
2.26538e-26
2.7386e-28
3.77247e-30
4.83489e-31
4.57221e-31
4.07047e-30
4.32482e-29
4.15209e-28
3.51636e-27
2.40841e-26
3.27495e-25
-1.64499e-25
-4.51421e-23
-1.36348e-21
-1.7548e-20
-4.50141e-18
-3.65321e-17
-1.47095e-16
5.21754e-17
3.93961e-18
1.24188e-20
1.81583e-23
2.56933e-25
3.4979e-27
4.61039e-29
6.59584e-31
6.50011e-32
6.51132e-32
6.35125e-31
7.09804e-30
7.21956e-29
6.5073e-28
4.38307e-27
1.41083e-25
-2.09895e-24
-7.44491e-23
-2.88037e-21
-1.21796e-19
-4.85063e-18
-3.34216e-17
-1.20418e-16
3.44691e-18
2.69723e-19
8.27132e-22
1.6462e-24
2.48021e-26
3.57877e-28
5.0138e-30
7.40057e-32
5.39145e-33
8.79973e-33
9.5571e-32
1.11893e-30
1.20207e-29
1.14557e-28
8.02587e-28
3.54766e-26
-3.36619e-24
-9.09522e-23
-4.22379e-21
-1.61857e-19
-4.29234e-18
-2.63168e-17
-8.59689e-17
1.9598e-19
1.59878e-20
4.41717e-23
1.08914e-25
1.69125e-27
2.51655e-29
3.66139e-31
5.53089e-33
2.75542e-34
1.15047e-33
1.37901e-32
1.68735e-31
1.91194e-30
1.89347e-29
1.71531e-28
3.70111e-27
-3.79644e-24
-9.39915e-23
-4.96915e-21
-1.58985e-19
-3.30718e-18
-1.83855e-17
-5.47672e-17
9.31623e-21
8.26613e-22
2.0878e-24
5.33118e-27
8.27233e-29
1.23964e-30
1.83408e-32
2.82226e-34
1.05908e-35
1.45026e-34
1.8967e-33
2.42313e-32
2.8936e-31
2.92e-30
5.89038e-29
-2.02997e-27
-3.5524e-24
-8.58228e-23
-4.90924e-21
-1.33603e-19
-2.28443e-18
-1.15854e-17
-3.15633e-17
3.59182e-22
3.6118e-23
9.11654e-26
1.89515e-28
2.85865e-30
4.23041e-32
6.24839e-34
1.03846e-35
6.90048e-37
1.73645e-35
2.47101e-34
3.2959e-33
4.13722e-32
4.41825e-31
1.28889e-29
-3.96367e-27
-2.90755e-24
-7.05476e-23
-4.19547e-21
-9.93643e-20
-1.43385e-18
-6.63394e-18
-1.66181e-17
1.07297e-23
1.26602e-24
3.48345e-27
4.86807e-30
6.98155e-32
1.00337e-33
1.4509e-35
2.58977e-37
1.26614e-37
1.99521e-36
3.02455e-35
4.21901e-34
5.52485e-33
7.76166e-32
3.23904e-31
-4.37997e-27
-2.12834e-24
-5.26932e-23
-3.16067e-21
-6.63577e-20
-8.23393e-19
-3.45661e-18
-8.08549e-18
2.32311e-25
3.32518e-26
1.01986e-28
1.01476e-31
1.33727e-33
1.70832e-35
2.17054e-37
2.8404e-39
1.28643e-38
2.16613e-37
3.44964e-36
5.04387e-35
6.84352e-34
1.98624e-32
-1.58153e-30
-3.8173e-27
-1.40762e-24
-3.59201e-23
-2.12345e-21
-4.00634e-20
-4.33907e-19
-1.6311e-18
-3.71392e-18
3.2848e-27
5.99705e-28
2.11983e-30
9.55202e-34
1.04201e-35
1.18599e-37
1.39737e-39
2.44673e-41
1.17331e-39
2.17074e-38
3.63258e-37
5.57714e-36
8.12448e-35
2.73058e-33
-2.24325e-30
-2.82789e-27
-8.4492e-25
-2.2377e-23
-1.28038e-21
-2.19287e-20
-2.09894e-19
-6.87451e-19
-1.68306e-18
2.48942e-29
6.50797e-30
2.91603e-32
3.3961e-36
3.17593e-38
3.26379e-40
3.50269e-42
3.38015e-42
9.73726e-41
1.98184e-39
3.49367e-38
5.63104e-37
1.12679e-35
-6.50952e-35
-2.08822e-30
-1.82938e-27
-4.60651e-25
-1.27241e-23
-6.94569e-22
-1.08799e-20
-9.29885e-20
-2.50827e-19
-8.08999e-19
5.93106e-32
2.94732e-32
2.06333e-34
5.26173e-40
3.87983e-49
3.18155e-47
1.66368e-45
3.0576e-43
7.50311e-42
1.62526e-40
3.02984e-39
5.12898e-38
1.75268e-36
-4.24734e-34
-1.54804e-30
-1.04385e-27
-2.27616e-25
-6.58076e-24
-3.38642e-22
-4.8789e-21
-3.75428e-20
-7.36813e-20
-4.37608e-19
1.59813e-51
6.21913e-55
6.27818e-53
6.69799e-51
3.93813e-49
1.73442e-47
6.36068e-46
1.90334e-44
5.12212e-43
1.17932e-41
2.33273e-40
4.23738e-39
1.61655e-37
-4.73402e-34
-9.62034e-31
-5.26455e-28
-1.0143e-25
-3.07736e-24
-1.47794e-22
-1.96634e-21
-1.37062e-20
-1.39281e-20
-2.59176e-19
6.15132e-54
6.12838e-55
1.50738e-54
2.41827e-52
1.56301e-50
7.55888e-49
3.11085e-47
1.04655e-45
3.02244e-44
7.42458e-43
1.56315e-41
3.58766e-40
-3.06129e-39
-3.58236e-34
-5.09364e-31
-2.33945e-28
-4.04505e-26
-1.29022e-24
-5.73306e-23
-7.06264e-22
-4.47731e-21
4.71572e-22
-1.52174e-19
2.1751e-56
2.33069e-57
4.81672e-56
7.72737e-54
5.44742e-52
2.92649e-50
1.32455e-48
4.82299e-47
1.50171e-45
3.95128e-44
8.89427e-43
3.06292e-41
-1.65512e-38
-2.10971e-34
-2.30286e-31
-9.09103e-29
-1.42819e-26
-4.79485e-25
-1.95621e-23
-2.23497e-22
-1.29118e-21
1.39134e-21
-8.03786e-20
6.85875e-59
8.46054e-60
1.20348e-57
1.90214e-55
1.49918e-53
9.0482e-52
4.53094e-50
1.79246e-48
6.04796e-47
1.7135e-45
4.23102e-44
1.34939e-42
-1.50007e-38
-9.9947e-35
-8.83069e-32
-3.0515e-29
-4.39961e-27
-1.5557e-25
-5.78812e-24
-6.13845e-23
-3.23249e-22
3.51531e-22
-3.55302e-20
1.58992e-61
3.49266e-62
2.08084e-59
3.37423e-57
3.04543e-55
2.09849e-53
1.17e-51
5.05452e-50
1.86076e-48
5.72257e-47
1.91529e-45
-2.25089e-43
-8.64482e-39
-3.81866e-35
-2.82957e-32
-8.68762e-30
-1.15931e-27
-4.31811e-26
-1.45653e-24
-1.43468e-23
-6.87765e-23
-2.7779e-23
-1.2358e-20
1.8146e-64
1.92762e-64
2.14522e-61
3.7439e-59
4.01517e-57
3.24697e-55
2.03383e-53
9.69099e-52
3.93695e-50
1.33874e-48
5.94659e-47
-2.81555e-43
-3.57073e-39
-1.15761e-35
-7.39166e-33
-2.04279e-30
-2.54199e-28
-9.96997e-27
-3.03435e-25
-2.77791e-24
-1.2093e-23
-6.05695e-24
-3.20365e-21
3.73785e-68
8.4583e-67
8.63666e-64
1.77942e-61
2.50405e-59
2.51598e-57
1.80858e-55
9.78129e-54
4.52409e-52
1.80542e-50
1.02723e-48
-1.44232e-43
-1.06322e-39
-2.6909e-36
-1.51404e-33
-3.81217e-31
-4.45515e-29
-1.83848e-27
-5.032e-26
-4.28724e-25
-1.68932e-24
-8.36418e-25
-6.35509e-22
1.54118e-73
2.60779e-71
3.19506e-68
1.30708e-65
3.4406e-63
5.80934e-61
9.16211e-59
1.10834e-56
9.59372e-55
7.567e-53
7.18758e-51
-4.25377e-44
-2.17423e-40
-4.50844e-37
-2.28079e-34
-5.29607e-32
-5.85571e-30
-2.53924e-28
-6.24089e-27
-4.9614e-26
-1.76344e-25
-8.03661e-26
-1.22225e-22
4.0582e-85
2.63412e-81
1.0411e-77
1.59496e-74
1.54921e-71
1.00546e-68
5.44131e-66
2.14858e-63
5.72149e-61
1.47931e-58
3.48617e-56
-6.85502e-45
-2.71276e-41
-4.83174e-38
-2.24348e-35
-4.86967e-33
-5.13586e-31
-2.33623e-29
-5.15794e-28
-3.8451e-27
-1.22913e-26
-3.67583e-27
-2.55744e-23
0
2.84134e-95
2.97828e-91
5.2535e-88
-7.65051e-78
-2.32605e-79
-4.44794e-71
-7.27503e-72
-5.61979e-65
-1.09287e-65
-1.15301e-66
-4.3535e-46
-1.51701e-42
-2.46591e-39
-1.07651e-36
-2.22227e-34
-2.25715e-32
-1.0746e-30
-2.13441e-29
-1.50523e-28
-4.31798e-28
-5.92021e-29
-2.71093e-24
0.307968
0.311786
0.311786
0.31174
1.20524e-07
0.00139383
0.0101166
6.22346e-13
8.97047e-08
3.78908e-11
5.61292e-13
1.13433e-13
3.48114e-09
1.62728e-12
2.33138e-16
9.42322e-14
4.61211e-32
-1.45238e-31
2.13135e-16
1.03633e-13
-3.17617e-15
-1.47451e-15
1.08395e-15
8.68337e-15
-3.70158e-16
1.01856e-15
6.27161e-15
1.63852e-14
1.01158e-15
3.49387e-15
1.0012e-14
2.55412e-14
1.54301e-15
4.27519e-15
1.44877e-14
6.71864e-14
1.59917e-15
4.82268e-15
2.75452e-14
1.90645e-13
1.49034e-15
5.72069e-15
4.48326e-14
3.70818e-13
1.3222e-15
6.38587e-15
5.31888e-14
5.19924e-13
1.19463e-15
6.51971e-15
5.31232e-14
5.954e-13
9.89483e-16
5.83869e-15
3.60029e-14
6.00332e-13
7.65398e-16
3.71026e-15
1.68494e-14
2.70143e-13
5.79071e-16
1.87804e-15
6.51594e-15
5.86889e-14
3.00856e-16
4.9753e-16
1.38322e-15
1.00654e-14
-4.71119e-17
-3.24868e-16
-3.01367e-16
2.5022e-15
-3.36869e-16
-9.13771e-16
-1.00571e-15
9.83661e-17
-5.11162e-16
-1.18696e-15
-1.14334e-15
-3.40442e-16
-5.33125e-16
-1.10721e-15
-7.07755e-16
-2.14645e-16
-4.45459e-16
-8.22269e-16
-7.68518e-17
-3.70257e-18
-3.16256e-16
-5.04642e-16
0
0
-1.96637e-16
-2.55097e-16
0
2.64829e-16
-1.08373e-16
-9.86273e-17
0
3.89779e-14
-5.25737e-17
-1.83765e-17
3.25461e-11
2.95795e-12
-2.15025e-17
-4.51952e-33
8.20937e-09
1.06298e-08
-5.8998e-18
7.23122e-32
2.00477e-08
2.73749e-08
0
1.11082e-18
3.68664e-09
1.56572e-08
5.81141e-17
5.20539e-13
3.96404e-13
3.96404e-13
1.95722e-16
1.43542e-12
1.16733e-12
7.2549e-13
6.26935e-17
1.08155e-12
8.26018e-13
9.06676e-12
-1.79839e-20
1.68478e-13
1.1573e-13
1.18263e-11
-6.2003e-19
3.35112e-15
2.1728e-15
5.65477e-12
-1.53193e-18
-5.50225e-17
-5.67377e-17
-3.79187e-17
-1.5162e-18
-1.86916e-16
-1.53453e-16
-7.28925e-17
-9.84288e-19
-1.13267e-16
-7.34937e-17
-2.81701e-17
-4.86348e-19
-4.72676e-17
-2.09386e-17
-5.46109e-18
-1.95627e-19
-1.68287e-17
-4.73183e-18
-6.87127e-19
-5.9837e-20
-4.83912e-18
-9.0141e-19
-7.346e-20
-1.23425e-20
-9.81619e-19
-1.48621e-19
-1.22732e-20
-1.28726e-21
-1.00808e-19
-7.26279e-21
-2.09738e-22
0.232233
0.000135625
1.62513e-11
2.69451e-11
2.69451e-11
2.59891e-10
4.02011e-09
8.91401e-06
0.00229004
0.00324201
0.00408533
0.00149059
0.000136786
6.86021e-05
3.52205e-05
3.17426e-05
0.000258052
0.000796323
0.0952481
1.45414e-12
2.92588e-12
4.85001e-12
2.15936e-11
2.78018e-11
1.63162e-08
1.80572e-07
6.22631e-07
7.99606e-07
8.33599e-05
0.00227211
0.00844785
0.00319297
0.000133996
6.58165e-05
3.77969e-05
0.000377536
0.000228952
0.25287
1.06114e-12
2.88902e-12
4.00538e-12
5.90716e-12
1.71991e-11
5.38495e-10
1.06874e-06
6.20385e-06
4.0836e-06
3.65399e-05
0.000433161
0.00823685
0.00256011
0.000415716
0.000196363
6.82693e-05
0.000320573
0.000187307
0.257668
6.30071e-12
1.25433e-11
1.4125e-11
1.43839e-11
3.97096e-11
1.39222e-09
1.78409e-06
3.94366e-05
4.40464e-05
5.15437e-05
7.97513e-05
0.000110736
0.000156863
0.00456339
0.000891939
0.000173707
0.000185631
0.000179039
0.258291
1.54671e-12
9.73903e-12
1.02301e-11
1.12875e-11
5.18231e-11
2.24325e-09
1.88341e-07
7.44137e-05
0.000146855
0.000135145
9.02438e-05
0.000103058
0.00593715
0.0510087
0.0306284
0.00221226
0.00017919
0.000179249
0.258516
2.05905e-14
3.45471e-13
5.20922e-12
1.86829e-11
3.00586e-11
6.80237e-10
2.6134e-08
2.14358e-05
0.000149962
0.000160874
0.000111441
0.000131602
0.054589
0.0627616
0.0625714
0.0154213
0.000189759
0.000178839
0.259027
1.00945e-13
2.05805e-12
1.56147e-11
4.45077e-11
4.54953e-11
1.27917e-10
8.75653e-08
6.24228e-07
1.4408e-05
0.00010153
0.000318108
0.00915679
0.0630927
0.0629271
0.0627616
0.0305945
0.000219062
0.000189763
0.259823
4.13987e-13
5.44337e-12
2.42773e-11
5.40672e-11
7.46547e-11
8.52668e-11
1.69653e-09
9.31572e-09
1.73489e-07
2.80888e-06
0.00105631
0.058501
0.0630927
0.0630927
0.062306
0.0286635
0.000261158
0.000270828
0.260297
1.65037e-12
1.09999e-11
3.1174e-11
5.63841e-11
7.02358e-11
7.02903e-11
1.04232e-10
1.37854e-09
3.41674e-08
7.14401e-07
0.000101049
0.0630308
0.0630927
0.0630308
0.0250317
0.00493321
0.000348948
0.000288076
0.2601
3.81478e-12
1.58182e-11
3.35598e-11
4.75807e-11
4.36012e-11
4.3893e-11
6.26664e-11
1.07657e-09
4.38233e-08
1.64721e-06
0.00873816
0.0622035
0.0630308
0.0233623
0.000389375
0.000362483
0.000596442
0.000287011
0.189024
5.44413e-12
1.76637e-11
2.96071e-11
2.85924e-11
2.68804e-11
5.58244e-11
7.86068e-10
8.72428e-10
1.33218e-07
3.31004e-07
0.0409323
0.060376
0.0622363
0.000852259
0.000362477
0.000362477
0.000537957
0.000289803
0.0118334
5.79897e-12
1.63542e-11
1.47366e-11
1.4658e-11
2.27572e-11
2.70301e-11
2.7227e-11
7.3823e-05
3.31004e-07
1.01346e-06
0.0126092
0.031021
0.0229599
0.00212008
0.000362477
0.00029515
0.000347444
0.000287011
0.000287011
4.11895e-12
6.06503e-12
4.90712e-12
4.93384e-12
4.93384e-12
5.18539e-12
1.98205e-05
0.000215455
0.000198052
1.23154e-05
1.61646e-05
2.52765e-05
3.84124e-05
0.0226506
0.00198008
0.000197951
0.000180844
0.000301764
0.000468219
1.73308e-12
1.26279e-12
1.28424e-12
3.11986e-12
5.18539e-12
9.70678e-12
1.59123e-09
0.000182737
0.00023545
0.000111482
0.000137894
4.25945e-05
0.000478777
0.0336842
0.0188158
0.000267319
0.000180844
0.000897288
0.000476339
3.92505e-13
1.43692e-14
4.59146e-09
1.26588e-08
1.04604e-08
5.40549e-07
1.73715e-05
6.16369e-06
2.51475e-05
0.0016422
0.000939951
0.000101812
0.017979
0.0339798
0.0338887
0.00162981
0.000180834
0.000879944
0.000320618
5.40261e-14
1.41859e-14
2.33724e-06
7.81185e-05
8.46153e-05
1.78717e-05
7.80354e-06
6.11951e-06
6.1438e-06
0.00105728
0.000306124
0.000247308
0.0338851
0.0339798
0.0339798
0.00501899
0.000195525
0.000841021
0.000293404
1.03166e-14
3.20252e-14
2.84929e-05
0.00165531
0.00169815
0.00067565
3.44421e-05
6.16024e-06
6.1438e-06
6.93147e-06
2.39409e-05
0.00404128
0.0336524
0.0339798
0.0338887
0.00687484
0.000267088
0.000543977
0.000299865
2.30401e-15
5.0955e-14
2.68968e-06
0.00201706
0.00202208
0.00117745
1.23747e-05
7.9855e-06
6.93147e-06
2.39409e-05
0.00311676
0.0302739
0.0327399
0.0336524
0.0201669
0.00322177
0.000205456
0.000160575
0.0062979
1.19928e-16
1.741e-14
1.64338e-11
0.00202078
0.00117974
0.000247285
1.54319e-05
1.18133e-05
0.000730137
0.00519766
0.0283263
0.0305911
0.0289115
0.00926287
3.43062e-05
6.64225e-05
0.000232758
0.000120722
0.0870446
5.0947e-17
5.45561e-16
2.76312e-13
0.00200682
2.44843e-05
2.12885e-05
1.82242e-05
0.00166954
0.0169153
0.0280043
0.0286382
0.0282205
0.00155424
2.75896e-05
7.71085e-06
6.38069e-05
0.000102741
9.57624e-05
0.123321
5.64889e-34
4.13819e-18
9.54327e-15
0.00174027
2.43529e-05
2.53599e-05
0.000401624
0.0147828
0.0239109
0.0246865
0.0196866
0.000620163
8.86101e-06
1.43279e-06
3.89355e-06
0.000111959
7.70943e-05
8.52142e-05
0.125724
-3.23812e-20
7.23122e-32
1.62947e-05
0.00110481
0.000239582
3.00469e-05
0.00395295
0.0138323
0.00950088
0.00328863
2.76944e-06
9.39227e-07
2.75194e-07
2.1446e-07
3.6256e-06
0.000114136
6.96152e-05
7.59983e-05
0.126871
5.65887e-08
3.35224e-16
0.000111107
0.000399191
0.0007767
0.000414928
0.00402288
0.00116735
3.1158e-06
6.52783e-07
3.80119e-07
2.43853e-07
2.1087e-07
1.97822e-07
4.97642e-06
6.86805e-05
6.72129e-05
0.000135654
0.127308
1.2009e-05
8.96292e-06
5.53418e-05
1.92143e-05
0.000205591
0.000597293
0.000175987
-1.58723e-08
5.7313e-09
7.68536e-08
2.25789e-07
2.10918e-07
1.97742e-07
2.00817e-07
9.64843e-05
6.68154e-05
6.82599e-05
0.000400625
0.127408
1.75661e-05
4.91694e-05
5.43386e-05
1.86543e-05
6.68286e-07
9.5825e-07
2.0574e-08
6.94198e-09
4.16984e-09
6.86443e-09
7.70265e-08
2.25988e-07
2.04282e-07
1.97742e-07
0.00011137
6.82599e-05
7.12756e-05
0.00103499
0.127433
2.73466e-06
2.85634e-05
3.30819e-05
2.11586e-05
4.36619e-07
1.77303e-08
7.21184e-09
4.1464e-09
3.27407e-09
-7.90567e-09
3.0572e-07
4.43775e-07
3.02961e-07
2.04282e-07
0.000142405
7.18695e-05
7.66401e-05
0.00204012
0.127438
1.0514e-08
2.07817e-07
2.31755e-08
2.39566e-08
2.53772e-08
2.51489e-08
2.5275e-08
1.07956e-08
2.38318e-09
-9.6227e-09
1.51937e-06
1.5305e-06
1.03411e-06
2.5447e-07
0.000147611
0.000109172
9.38757e-05
0.00274379
0.127433
2.26722e-08
2.28057e-08
2.29153e-08
2.31755e-08
2.70957e-08
3.21e-08
2.51643e-08
4.59002e-09
2.06296e-09
-4.21205e-08
4.18241e-05
8.21909e-05
2.21941e-05
3.25173e-06
0.000147881
0.000127926
0.000116633
0.00767983
0.0808108
3.85332e-08
3.70673e-08
4.33078e-08
4.96689e-08
5.08779e-08
5.06016e-08
5.29511e-09
1.29916e-09
1.71081e-09
5.16259e-05
0.000463842
0.000590717
0.000174007
5.45157e-06
0.000122495
9.45733e-05
0.000840998
0.0176053
0.0061661
3.51964e-08
4.57105e-08
3.66653e-08
4.70366e-08
5.09019e-08
1.01672e-08
3.81804e-10
8.35373e-10
1.29916e-09
0.000300397
0.000590717
0.000590723
0.000331996
1.7471e-05
3.13277e-05
5.87408e-05
0.00459139
0.0121087
0.00175627
4.9884e-13
1.84504e-08
1.29366e-09
1.34374e-08
3.44359e-08
1.80666e-09
2.99247e-10
3.93187e-10
1.49752e-09
0.000134372
0.000590723
0.000590723
0.000547722
3.89e-05
4.39245e-05
0.000499642
0.00487226
0.00189431
0.00120412
7.62299e-13
1.22673e-13
1.23424e-09
2.96785e-08
6.14134e-09
2.99732e-10
2.04116e-10
7.34216e-09
4.86525e-09
1.49079e-08
0.000562875
0.000590723
0.000588362
9.01048e-05
8.00304e-05
0.00310109
0.0047621
0.00106797
0.00114964
5.77716e-12
4.40722e-14
3.28719e-09
2.97435e-08
1.09515e-08
2.65684e-10
1.94732e-11
1.64151e-08
1.1129e-08
2.56535e-08
0.000202068
0.000585882
0.000579204
6.8512e-05
7.0004e-05
0.00240431
0.00361845
0.000809951
0.00108139
2.77453e-12
-9.45883e-34
1.11909e-09
2.17232e-08
5.9255e-09
1.5358e-10
7.79509e-12
1.94364e-08
1.15459e-07
7.31619e-08
1.04489e-05
0.000169958
0.000148024
6.55751e-05
6.55751e-05
0.000179068
0.000547147
0.000573219
0.00114964
-1.37343e-17
-2.32445e-20
4.33348e-10
2.06234e-11
3.98499e-11
1.21135e-10
4.89386e-12
1.38493e-08
7.71388e-07
3.78195e-07
2.22698e-06
0.00044934
5.40929e-05
9.78283e-05
8.64522e-05
0.000144759
0.000323197
0.000480656
0.00115554
-1.80548e-17
0
2.66323e-11
2.04425e-11
3.11946e-11
6.34476e-11
4.90315e-12
9.53091e-10
8.03168e-07
4.02861e-06
7.46361e-06
0.000302089
5.12365e-05
0.000128326
0.000609238
0.000356124
0.000403835
0.000358114
0.000733293
-5.59322e-18
5.87803e-17
1.09391e-13
2.04437e-11
3.93004e-11
3.52165e-11
3.82393e-12
6.50227e-14
2.67726e-07
5.65881e-06
5.85599e-06
4.49418e-06
2.41267e-05
6.19398e-05
0.000963266
0.000392214
0.000355056
0.000317548
0.000305678
-6.98756e-19
8.02524e-18
7.20766e-13
2.66561e-11
1.72473e-11
1.27992e-11
2.12777e-12
1.46861e-14
6.10956e-24
1.9884e-06
9.92331e-06
4.39094e-06
3.09443e-05
5.0013e-05
0.00099173
0.000342116
0.000385266
0.000400942
9.44757e-05
-2.62513e-20
-8.55841e-22
4.06306e-13
1.77438e-11
3.87828e-12
3.47437e-12
6.70908e-13
5.1519e-15
-8.24695e-16
0
6.81507e-06
3.92757e-05
0.000220084
0.000873009
0.00100993
0.00034155
0.00052318
0.00338308
2.06568e-05
-1.53142e-21
-7.19535e-23
4.54093e-14
1.93734e-12
4.19443e-13
5.38006e-13
9.3274e-14
4.12775e-16
-7.01973e-15
0
8.8715e-09
7.14914e-05
0.000356549
0.0010558
0.00103298
0.00034155
0.000777346
0.0034453
2.82251e-08
-4.8995e-22
-1.20691e-22
-1.13111e-23
-7.2457e-25
2.03166e-15
3.25007e-14
3.33199e-15
4.77877e-18
-1.40771e-14
-3.79124e-26
-1.6532e-27
1.97901e-05
0.000212764
0.00105513
0.00105004
0.00034155
0.000750816
0.00344532
-2.49173e-43
-2.43664e-24
-3.40532e-23
-1.41999e-24
-3.53711e-26
-7.27647e-28
-1.35283e-29
4.93886e-19
1.63145e-20
-1.17119e-14
-1.09735e-16
-3.86155e-18
-1.51534e-19
0.000255681
0.00100171
0.00092976
0.00034175
0.00117073
0.00302652
-2.80152e-43
)
;

boundaryField
{
    leftWall
    {
        type            zeroGradient;
    }
    rightWall
    {
        type            zeroGradient;
    }
    lowerWall
    {
        type            zeroGradient;
    }
    atmosphere
    {
        type            inletOutlet;
        inletValue      uniform 0;
        value           nonuniform List<scalar> 
46
(
0
0
0
0
0
0
0
0
0
0
0
0
0
0
0
0
0
0
0
0
0
0
0
0
0
0
0
0
0
0
0
0
0
0
0
0
0
0
0
0.000255681
0.00100171
0.00092976
0.00034175
0.00117073
0.00302652
0
)
;
    }
    defaultFaces
    {
        type            empty;
    }
}


// ************************************************************************* //
