/*--------------------------------*- C++ -*----------------------------------*\
| =========                 |                                                 |
| \\      /  F ield         | OpenFOAM: The Open Source CFD Toolbox           |
|  \\    /   O peration     | Version:  2206                                  |
|   \\  /    A nd           | Website:  www.openfoam.com                      |
|    \\/     M anipulation  |                                                 |
\*---------------------------------------------------------------------------*/
FoamFile
{
    version     2.0;
    format      ascii;
    arch        "LSB;label=32;scalar=64";
    class       surfaceScalarField;
    location    "0.7";
    object      alphaPhi0.water;
}
// * * * * * * * * * * * * * * * * * * * * * * * * * * * * * * * * * * * * * //

dimensions      [0 3 -1 0 0 0 0];

oriented        oriented;

internalField   nonuniform List<scalar> 
4432
(
-1.94765e-06
1.94765e-06
-6.79368e-07
-1.26828e-06
1.20786e-06
-1.88723e-06
1.99081e-06
-7.82949e-07
1.76079e-06
2.30016e-07
9.58015e-07
8.02775e-07
2.2793e-08
9.35222e-07
-8.22096e-07
8.4489e-07
-1.51483e-06
6.92737e-07
-2.07415e-06
5.59324e-07
-2.53969e-06
4.65534e-07
-2.93762e-06
3.97934e-07
-3.26695e-06
3.29334e-07
-3.49936e-06
2.32408e-07
-3.58834e-06
8.89842e-08
-3.46461e-06
-1.23735e-07
-2.9439e-06
-5.20707e-07
-1.86458e-06
-1.07932e-06
2.65301e-07
-2.12989e-06
3.65903e-06
-3.39371e-06
9.40584e-06
-5.7468e-06
1.4265e-05
-4.85911e-06
1.31879e-05
-2.06264e-06
4.0103e-06
-9.5924e-07
-2.37169e-06
4.33078e-07
-3.27954e-06
9.33644e-07
-1.28351e-06
5.29271e-07
6.34389e-07
-2.75003e-07
1.60705e-06
-1.0795e-06
1.73972e-06
-1.69218e-06
1.45757e-06
-2.07919e-06
1.07975e-06
-2.26216e-06
7.42295e-07
-2.26165e-06
4.65023e-07
-2.0873e-06
2.23574e-07
-1.74507e-06
-1.28945e-08
-1.19789e-06
-3.14773e-07
-4.27383e-07
-6.8152e-07
6.2716e-07
-1.17828e-06
1.93496e-06
-1.82851e-06
3.79077e-06
-2.93513e-06
5.99767e-06
-4.33679e-06
9.47469e-06
-6.87086e-06
1.24275e-05
-8.69947e-06
8.97671e-06
-1.40829e-06
2.11376e-05
-2.02238e-06
6.03267e-06
-1.47024e-06
-2.92382e-06
-6.68504e-07
-4.08128e-06
-5.14863e-07
-1.43715e-06
-9.34498e-07
1.05402e-06
-1.54613e-06
2.21868e-06
-2.10199e-06
2.29558e-06
-2.52036e-06
1.87594e-06
-2.80678e-06
1.36617e-06
-2.98992e-06
9.25434e-07
-3.08809e-06
5.63193e-07
-3.10341e-06
2.38889e-07
-3.03444e-06
-8.18573e-08
-2.905e-06
-4.44212e-07
-2.7156e-06
-8.70922e-07
-2.48694e-06
-1.40694e-06
-2.20308e-06
-2.11236e-06
-2.06142e-06
-3.07679e-06
-2.03213e-06
-4.36608e-06
-2.25701e-06
-6.64599e-06
-3.5295e-06
-7.42698e-06
-5.03999e-06
5.98216e-07
1.58619e-05
-1.95061e-06
7.98329e-06
-2.31856e-06
-2.55587e-06
-2.26397e-06
-4.13587e-06
-2.53061e-06
-1.17051e-06
-2.96634e-06
1.48975e-06
-3.36009e-06
2.61242e-06
-3.64904e-06
2.58454e-06
-3.82838e-06
2.05527e-06
-3.91834e-06
1.45613e-06
-3.94373e-06
9.50822e-07
-3.93848e-06
5.5794e-07
-3.95088e-06
2.51295e-07
-4.03996e-06
7.21925e-09
-4.14991e-06
-3.34254e-07
-4.34754e-06
-6.73291e-07
-4.67825e-06
-1.07623e-06
-5.23703e-06
-1.55358e-06
-6.25953e-06
-2.05429e-06
-8.06473e-06
-2.56089e-06
-1.13443e-05
-3.36637e-06
-1.44903e-05
-4.28101e-06
-1.13361e-05
-2.21489e-06
6.02129e-06
-3.03717e-06
1.10205e-05
-4.26606e-06
-1.32699e-06
-4.58337e-06
-3.81856e-06
-4.75068e-06
-1.0032e-06
-5.03787e-06
1.77695e-06
-5.12937e-06
2.70392e-06
-5.0512e-06
2.50637e-06
-4.8964e-06
1.90047e-06
-4.76866e-06
1.32839e-06
-4.71861e-06
9.00775e-07
-4.73893e-06
5.78256e-07
-4.69061e-06
2.02974e-07
-4.55507e-06
-1.28317e-07
-4.52079e-06
-3.68538e-07
-4.59472e-06
-5.99359e-07
-4.81731e-06
-8.5364e-07
-5.22627e-06
-1.14463e-06
-5.83368e-06
-1.44689e-06
-6.69167e-06
-1.70289e-06
-7.96435e-06
-2.09368e-06
-8.9652e-06
-3.28016e-06
-6.68745e-06
-4.49265e-06
-6.58981e-07
-4.30732e-06
1.53278e-05
-6.88398e-06
1.24967e-06
-7.23892e-06
-3.46362e-06
-7.26031e-06
-9.81809e-07
-7.58995e-06
2.10658e-06
-7.78765e-06
2.90162e-06
-7.78198e-06
2.50071e-06
-7.54275e-06
1.66124e-06
-7.02747e-06
8.13111e-07
-6.31201e-06
1.85319e-07
-5.62321e-06
-1.10547e-07
-5.16095e-06
-2.59284e-07
-4.98613e-06
-3.03141e-07
-5.14107e-06
-2.13597e-07
-5.72355e-06
-1.68762e-08
-6.57884e-06
1.64599e-09
-7.46936e-06
-2.54105e-07
-8.32774e-06
-5.88508e-07
-9.00071e-06
-1.02992e-06
-9.00945e-06
-2.08494e-06
-7.54825e-06
-4.74137e-06
-3.3233e-06
-8.71754e-06
-3.98235e-06
-3.2223e-06
1.85501e-05
-7.86129e-06
5.88866e-06
-8.93981e-06
-2.38438e-06
-8.71746e-06
-1.2014e-06
-8.27853e-06
1.66765e-06
-7.66146e-06
2.28455e-06
-7.00952e-06
1.84876e-06
-6.4796e-06
1.13133e-06
-6.27173e-06
6.0524e-07
-6.7669e-06
6.80485e-07
-7.83895e-06
9.61499e-07
-8.96549e-06
8.67256e-07
-9.83659e-06
5.67967e-07
-1.06718e-05
6.21589e-07
-1.1622e-05
9.3335e-07
-1.26211e-05
1.00076e-06
-1.34783e-05
6.03032e-07
-1.4064e-05
-2.59134e-09
-1.43915e-05
-7.0251e-07
-1.40177e-05
-2.45871e-06
-1.27569e-05
-6.00232e-06
-8.07561e-06
-1.33988e-05
-1.20581e-05
3.29652e-06
1.52536e-05
1.21441e-06
7.97077e-06
-2.45425e-07
-9.24642e-07
-1.03384e-06
-4.16723e-07
-1.12881e-06
1.76263e-06
-1.59938e-06
2.75512e-06
-2.32887e-06
2.57825e-06
-2.74173e-06
1.54419e-06
-3.09439e-06
9.57898e-07
-4.12256e-06
1.70866e-06
-5.72892e-06
2.56786e-06
-6.82758e-06
1.50673e-06
-6.86545e-06
5.56855e-07
-5.81051e-06
-1.12603e-07
-3.84624e-06
-3.86731e-07
-1.48675e-06
-4.9635e-07
7.38221e-07
-5.51747e-07
1.39009e-06
-1.89834e-07
6.88966e-07
8.57287e-08
-3.2966e-06
9.82793e-07
-9.07724e-06
7.84698e-07
-1.28653e-05
-2.05923e-06
-1.12895e-05
-1.1927e-05
1.19748e-05
-3.51584e-05
2.32793e-05
-3.92914e-05
1.65758e-05
-3.60312e-05
4.29837e-06
-2.93624e-05
-2.79005e-06
5.20316e-06
-3.23669e-05
4.47157e-05
-3.73661e-05
6.09884e-05
-4.17889e-06
8.10326e-05
4.37726e-06
6.89335e-05
1.2194e-05
5.38897e-05
1.51593e-05
5.51853e-05
-1.07099e-06
6.53308e-05
-9.91921e-06
7.88925e-05
-1.33345e-05
8.93787e-05
-8.02092e-06
8.52194e-05
2.53522e-06
6.02776e-05
2.34868e-05
1.88594e-05
3.99736e-05
1.49768e-05
-1.99894e-05
3.20121e-05
-2.10073e-05
1.36663e-05
-6.30441e-06
3.26794e-06
-9.10862e-07
-7.75514e-07
2.43069e-06
-7.4951e-06
3.26569e-05
-6.03982e-05
1.96281e-05
-4.12976e-05
1.21291e-05
-5.71569e-07
1.87106e-05
-3.68399e-07
2.30887e-05
2.22298e-06
3.00691e-05
2.77065e-06
4.95485e-05
2.17976e-06
3.10087e-05
8.84708e-06
6.59135e-06
-6.84956e-08
3.31145e-06
-8.97661e-06
6.50146e-06
-4.71414e-06
2.30439e-05
3.32384e-06
4.42478e-05
1.73007e-05
5.53202e-05
-4.84207e-06
2.96564e-05
-3.10755e-06
4.13626e-06
-9.84046e-07
9.90652e-07
2.89157e-06
-4.79e-06
2.37115e-05
-2.62143e-05
1.72574e-05
-4.39086e-05
4.10958e-07
-8.25401e-06
1.87101e-07
6.35836e-08
-5.30379e-09
7.57698e-07
1.22073e-06
1.96667e-06
3.20354e-06
1.14431e-05
-5.19481e-06
3.34194e-05
-6.03736e-06
5.72585e-06
-5.1101e-06
-7.60263e-06
1.67457e-06
-2.0924e-05
6.09464e-06
-1.66097e-05
3.73901e-06
1.46016e-06
1.33939e-05
5.76773e-06
6.49965e-05
6.94625e-07
2.46687e-05
2.61619e-07
4.41548e-06
1.55065e-06
-4.52168e-07
1.11976e-05
-1.28677e-05
1.66236e-05
-3.07815e-05
5.24512e-07
-1.68873e-05
1.10938e-07
-4.59194e-07
3.76775e-09
6.37247e-08
-1.07976e-06
1.46135e-06
-4.98531e-06
8.25971e-06
-1.27863e-05
2.88135e-05
-1.19813e-05
8.67229e-07
-1.22246e-05
1.01358e-06
-1.12162e-06
-1.81351e-05
4.24779e-06
-2.52665e-05
9.05714e-06
-2.02874e-05
5.52277e-06
2.58555e-07
6.09259e-06
4.53617e-06
8.4609e-05
1.66053e-06
2.06416e-05
1.2262e-06
4.10324e-06
7.57783e-06
-6.95759e-06
2.07108e-05
-2.51291e-05
1.58697e-05
-2.51638e-05
4.47327e-07
-2.40387e-06
1.79684e-09
-1.07008e-08
-8.1884e-09
3.55199e-08
-2.08744e-06
3.37464e-06
-7.20675e-06
1.47261e-05
-7.8063e-06
9.97163e-06
-8.15664e-06
1.01465e-06
-5.02243e-06
-2.64977e-06
4.49346e-06
-2.6071e-05
6.80133e-06
-2.64308e-05
5.50391e-06
-1.79236e-05
5.26563e-06
-4.89107e-07
5.30955e-06
3.64667e-06
0.000105124
1.37755e-06
1.8617e-05
3.72865e-06
3.3365e-07
2.16396e-05
-2.42499e-05
1.96163e-05
-2.24777e-05
2.46993e-06
-5.22998e-06
1.36633e-08
-1.65459e-08
-8.69989e-10
-2.37422e-10
2.7888e-08
2.16082e-08
-7.41291e-07
4.52703e-06
-2.16589e-06
1.74969e-05
-6.82455e-07
2.61162e-06
-3.27086e-07
5.74083e-07
3.49492e-06
-7.40385e-06
6.41798e-06
-2.70981e-05
2.88907e-06
-1.38218e-06
1.28453e-06
-1.7278e-08
2.22418e-06
9.93152e-08
1.33751e-06
3.32362e-06
0.000120716
4.4276e-06
8.10288e-06
2.89714e-05
-1.98429e-05
2.4837e-05
-1.58695e-05
5.24603e-06
-2.18951e-06
1.60543e-08
-7.52588e-12
-4.79238e-10
-7.56148e-11
-3.86904e-09
-1.22173e-10
-1.67245e-08
3.03937e-08
-4.04884e-06
4.92119e-06
-2.0481e-06
1.70381e-05
-1.78031e-07
6.20297e-07
4.7829e-08
3.14789e-07
3.29611e-06
-3.088e-06
1.36192e-06
-4.07246e-07
1.2185e-08
-3.38259e-08
2.04346e-09
-1.30148e-08
5.72015e-07
-3.4539e-08
2.78096e-06
1.3358e-06
6.36318e-05
2.21924e-05
-8.87071e-06
1.49797e-05
-8.09199e-06
2.18951e-06
-2.93052e-07
-3.27109e-13
-2.91558e-15
-7.92862e-12
-5.66639e-14
-8.37759e-11
-1.74986e-12
-2.54883e-10
-1.43584e-11
1.27224e-08
1.52034e-08
-3.64095e-06
1.38456e-06
-1.04283e-06
2.10727e-06
-2.88489e-08
6.16079e-07
9.44422e-08
1.58816e-07
3.19028e-07
-8.20467e-07
-2.20894e-09
-9.60387e-08
-1.81898e-09
-4.00295e-08
2.46353e-10
-2.09996e-08
1.89284e-07
-1.80986e-08
3.72673e-07
1.10976e-06
5.74121e-05
5.17042e-06
1.00831e-05
7.42505e-06
5.71614e-06
5.42302e-06
1.07738e-06
2.10342e-06
2.90288e-06
-1.0849e-06
4.95095e-06
-4.62833e-06
6.29855e-06
-7.49588e-06
5.4458e-06
-8.07026e-06
1.62151e-06
-4.13083e-06
-7.35614e-07
-6.57249e-07
-5.22202e-07
8.12531e-07
-8.79466e-08
1.85868e-06
-7.39156e-09
2.50289e-06
-3.65693e-10
2.56977e-06
-1.5302e-11
2.16066e-06
-5.33781e-13
1.49188e-06
-4.85335e-13
7.10327e-07
-7.45397e-12
4.33118e-08
1.96959e-10
1.02841e-08
4.02916e-10
-1.59648e-08
9.59199e-09
-3.57961e-07
-6.9648e-10
-8.52723e-07
-8.05632e-09
-5.03382e-11
-7.56686e-06
2.50996e-06
7.57318e-06
2.00444e-06
6.22166e-06
-2.14646e-06
5.22828e-06
-5.34433e-06
4.03336e-06
-4.71282e-06
1.96274e-06
-1.57564e-06
3.96619e-07
5.96397e-07
-8.63037e-08
1.53435e-06
-3.97462e-08
6.19159e-07
-2.65267e-10
9.57229e-08
6.8082e-11
7.77588e-09
-1.56495e-15
3.81605e-10
8.60011e-16
1.5828e-11
-2.59345e-14
5.49197e-13
-2.44402e-14
1.55577e-14
-1.34388e-17
1.63181e-14
-4.92927e-13
7.5485e-14
-7.48826e-12
2.27066e-10
-2.98991e-11
4.97703e-10
5.84066e-11
9.13265e-09
1.29208e-10
8.23801e-09
1.99787e-10
1.2402e-10
-7.07926e-12
-2.83157e-11
-1.90949e-12
-1.2323e-06
4.01593e-06
1.17853e-09
1.48678e-06
9.78283e-07
1.39421e-07
1.25017e-06
-3.8478e-08
1.1397e-06
-1.78288e-11
2.77214e-07
-1.0193e-09
3.99433e-08
1.0395e-09
1.97181e-10
-4.13871e-14
-6.80835e-11
-2.51389e-15
-1.46344e-15
-4.25977e-19
1.51053e-14
-3.49138e-13
1.30584e-13
-3.57377e-13
7.04465e-15
-1.70384e-13
7.47028e-16
-2.21191e-14
1.24368e-15
-4.45783e-16
5.53112e-12
-5.35503e-13
4.31899e-12
-3.66627e-13
2.75635e-12
-6.18521e-14
8.96339e-12
1.63917e-12
1.55937e-10
-1.7288e-11
3.38193e-10
3.41071e-12
1.6868e-11
3.55299e-12
-1.65039e-12
-5.85021e-12
4.48443e-07
-1.67463e-10
5.03817e-07
-5.40542e-09
3.75993e-08
5.67791e-09
-2.13213e-13
1.05173e-10
-1.80764e-11
-2.97277e-15
-1.03438e-09
-4.1944e-12
-1.86862e-15
5.14337e-12
1.56301e-16
-4.31803e-14
1.87216e-18
-2.28569e-15
5.22113e-17
-1.31896e-17
6.49676e-13
-6.28064e-18
5.67285e-13
-3.34849e-18
7.2532e-13
-1.43608e-20
1.14378e-13
4.3728e-21
1.13932e-13
4.43547e-21
9.82764e-12
6.86765e-15
1.05805e-11
6.7459e-13
4.68384e-12
1.55412e-12
5.44886e-12
2.33593e-12
1.53298e-12
-2.12112e-13
4.67827e-12
2.42008e-14
9.89887e-13
-1.85992e-14
-4.18975e-15
1.30798e-13
-1.11478e-10
2.97525e-11
-5.55456e-09
-6.62322e-12
-1.04447e-10
7.38603e-11
-2.55772e-13
9.43686e-13
-2.58745e-13
4.70899e-19
-5.02566e-12
2.66201e-20
1.21199e-13
2.73854e-21
6.69744e-15
5.79339e-22
1.95479e-17
1.35901e-22
6.35761e-18
7.3504e-22
7.37712e-20
3.19464e-21
4.00804e-20
8.0208e-21
3.40771e-22
1.11658e-20
-1.72859e-20
9.29514e-21
-3.74893e-20
2.03929e-21
2.24787e-16
8.41061e-18
2.47208e-14
6.30591e-17
1.10833e-13
3.94569e-16
1.84966e-13
8.60941e-17
1.74106e-14
-3.83118e-16
3.96949e-14
5.60109e-17
4.3065e-15
-1.76565e-17
-2.5685e-18
1.16866e-16
-1.18937e-11
1.22377e-12
-7.43444e-11
2.14517e-12
-9.43686e-13
5.92306e-13
1.04526e-18
-1.38374e-21
2.44582e-20
-3.11469e-21
1.42701e-21
-1.11834e-22
-2.1957e-22
-7.12549e-24
-1.40893e-22
9.30735e-25
-3.31152e-23
1.50485e-22
-2.8006e-22
1.49819e-21
-1.76764e-21
4.40547e-21
-6.65014e-21
7.70738e-21
-1.65479e-20
8.80739e-21
-3.08482e-20
6.2847e-21
-4.72933e-20
1.1945e-21
2.0429e-20
1.37448e-21
5.90018e-17
3.3232e-18
4.32132e-16
5.94543e-19
4.68997e-16
6.2695e-19
7.76573e-17
-2.06742e-19
1.26703e-16
1.67098e-18
4.23679e-18
3.54485e-21
7.51729e-21
2.1955e-19
-4.06906e-13
-1.07825e-14
-5.86438e-13
-7.4275e-15
-2.63305e-21
5.86803e-15
-3.73654e-21
-2.67486e-23
-5.69468e-23
-8.23221e-23
-2.76673e-24
-3.48056e-24
4.63931e-25
-2.39233e-30
-1.66141e-25
6.85337e-24
-3.1901e-23
2.30795e-22
-3.75955e-22
7.74099e-22
-1.38569e-21
1.47417e-21
-3.41126e-21
1.94958e-21
-6.92379e-21
1.88742e-21
-1.23949e-20
1.34719e-21
-1.99398e-20
6.6406e-22
-2.89042e-20
1.25113e-22
3.85096e-20
1.1568e-21
6.01494e-19
3.15094e-20
1.17111e-18
5.73345e-20
1.88963e-19
6.83545e-23
1.69791e-19
2.73959e-22
-3.98795e-20
1.32442e-22
-8.35507e-22
-2.79789e-20
-5.48461e-15
-4.99643e-16
-5.8345e-15
-8.56133e-16
-2.55526e-22
3.35317e-17
-4.28692e-23
-1.38485e-23
-8.02821e-25
-7.0927e-24
-1.55786e-28
-3.26421e-25
3.63212e-31
-1.58542e-28
-7.83804e-25
1.26502e-23
-2.52369e-23
5.74879e-23
-6.81421e-23
1.34346e-22
-1.07641e-22
2.15867e-22
-1.99006e-22
2.60115e-22
-5.27899e-22
2.49517e-22
-1.27676e-21
2.03454e-22
-2.42762e-21
1.51713e-22
-3.74728e-21
1.10803e-22
-4.92291e-21
8.24591e-23
-5.4123e-21
6.05923e-23
-5.21277e-21
3.39751e-23
-5.22333e-21
1.53863e-24
-3.48503e-21
-1.2745e-22
-7.56502e-22
-6.52144e-22
-2.30819e-21
5.46976e-21
-6.6211e-17
5.96523e-16
-3.20274e-17
3.55195e-16
-1.55164e-21
1.50591e-18
-1.73592e-24
-1.49736e-21
-3.21985e-26
-1.19644e-24
8.38426e-29
-4.00579e-26
8.48075e-30
-1.5139e-28
-5.99645e-25
1.74631e-24
-5.59101e-25
6.4045e-24
1.35671e-23
1.34027e-23
3.49113e-23
1.97117e-23
3.15664e-23
2.25429e-23
-1.76083e-23
2.16047e-23
-1.09133e-22
1.84e-23
-2.31211e-22
1.42682e-23
-3.4378e-22
9.06055e-24
-4.09296e-22
2.77383e-24
-3.92473e-22
-3.71658e-24
-2.39682e-22
-2.51845e-23
-1.00781e-23
-8.92948e-23
1.19337e-21
-2.77231e-22
4.11021e-21
-8.41765e-22
-2.49773e-21
1.12113e-20
-1.34941e-17
4.61841e-16
-9.94239e-19
8.22327e-17
-2.68952e-21
4.4283e-19
-4.1104e-25
-1.45696e-22
-2.6914e-27
-2.89973e-24
2.73725e-29
-8.37744e-26
4.62861e-30
-2.57217e-28
9.6009e-26
1.15768e-25
1.27626e-24
4.17234e-25
3.61125e-24
7.91917e-25
5.0613e-24
1.04281e-24
3.25009e-24
1.07265e-24
-1.78615e-24
8.64042e-25
-8.52722e-24
4.23779e-25
-1.4509e-23
-9.79402e-28
-1.51915e-23
-1.1027e-24
-6.5464e-24
-3.86945e-24
2.57169e-23
-1.13091e-23
1.43613e-22
-3.41102e-23
5.09975e-22
-1.00099e-22
1.53536e-21
-2.81421e-22
4.26226e-21
-8.00189e-22
-2.24838e-21
1.10502e-20
-1.68413e-17
4.08719e-16
-4.18955e-19
1.06176e-16
-1.62205e-22
3.20631e-19
-6.57579e-25
-1.4957e-22
-1.99018e-27
-3.16558e-24
3.55497e-29
-7.18971e-26
7.63911e-28
-2.3544e-28
3.04416e-26
3.08365e-27
1.23327e-25
1.22741e-26
2.16744e-25
1.8356e-26
1.93405e-25
1.35308e-26
3.6275e-26
5.30908e-28
-1.53017e-25
-2.39929e-26
-2.02409e-25
-1.08048e-25
1.52765e-25
-3.56154e-25
2.37038e-24
-1.01187e-24
9.92586e-24
-2.51509e-24
3.51993e-23
-7.28141e-24
1.09708e-22
-2.23348e-23
3.42447e-22
-6.68656e-23
1.06791e-21
-1.92059e-22
3.2984e-21
-5.75091e-22
-1.66512e-21
9.60754e-21
-2.38418e-17
7.88687e-16
-2.08414e-19
1.15384e-16
-1.07289e-22
1.24084e-19
-4.14311e-25
-1.22269e-22
1.29084e-28
-1.86887e-24
1.05069e-29
-2.57177e-26
8.90883e-29
-2.18844e-28
1.19169e-27
-4.57994e-29
2.7891e-27
-7.82832e-29
2.02039e-27
-2.74984e-28
3.56661e-29
-1.22327e-27
-4.15829e-29
-4.77263e-27
1.175e-26
-1.28848e-26
8.72637e-26
-3.36712e-26
3.92179e-25
-1.05089e-25
1.04187e-24
-3.46295e-25
3.4712e-24
-1.17717e-24
1.33912e-23
-4.01062e-24
5.13658e-23
-1.27927e-23
1.85136e-22
-3.8553e-23
6.38306e-22
-1.19553e-22
2.2983e-21
-4.12485e-22
-1.25256e-21
7.62178e-21
-1.84385e-17
1.04103e-15
-9.24322e-20
1.00372e-16
-4.28468e-23
6.46199e-20
-7.56889e-26
-6.83156e-23
4.61804e-28
-8.05987e-25
4.94239e-30
-8.94996e-27
-1.34205e-30
-9.5281e-29
-3.34198e-30
-8.10919e-30
-9.24747e-30
-8.24236e-30
-2.09016e-29
-2.21283e-29
1.00034e-28
-1.07583e-28
1.21924e-27
-5.33516e-28
3.70313e-27
-2.56241e-27
1.64313e-26
-1.07258e-26
7.55396e-26
-4.03255e-26
3.4601e-25
-1.46761e-25
1.5622e-24
-5.24946e-25
6.70662e-24
-1.82785e-24
2.59348e-23
-5.90445e-24
9.63287e-23
-1.96078e-23
3.87728e-22
-7.43881e-23
1.7245e-21
-3.02995e-22
-9.46248e-22
6.51121e-21
-4.32826e-18
1.12873e-15
-3.90524e-20
7.2104e-17
-9.30276e-24
3.6903e-20
5.27564e-27
-1.99713e-23
3.60448e-28
-2.2716e-25
3.19238e-30
-2.52755e-27
-2.53729e-32
-2.26419e-29
-1.12957e-31
-1.61173e-30
-4.75406e-32
-1.27817e-30
1.07512e-30
-4.45124e-30
1.58591e-29
-2.65451e-29
1.42322e-28
-1.47376e-28
1.05298e-27
-7.51203e-28
6.17943e-27
-3.27473e-27
3.0882e-26
-1.34087e-26
1.4426e-25
-5.29302e-26
6.42721e-25
-1.96183e-25
2.74136e-24
-7.07623e-25
1.09924e-23
-2.48904e-24
4.77583e-23
-9.88196e-24
2.4663e-22
-4.65216e-23
1.32525e-21
-2.15691e-22
-7.09712e-22
5.53442e-21
-1.73503e-18
9.85078e-16
-1.00191e-20
4.88662e-17
-1.37567e-25
1.55975e-20
8.94098e-27
-2.80486e-23
1.97373e-28
-1.64374e-25
1.66633e-30
-1.0087e-27
4.10184e-32
-5.88204e-30
3.07623e-32
-3.13753e-31
5.61176e-32
-2.39035e-31
6.47366e-31
-8.49022e-31
6.61573e-30
-5.34329e-30
5.27844e-29
-3.28383e-29
3.5675e-28
-1.87223e-28
1.98842e-27
-9.03637e-28
1.03682e-26
-4.17824e-27
5.0842e-26
-1.73416e-26
2.30484e-25
-6.51151e-26
1.0255e-24
-2.50689e-25
4.60099e-24
-1.01674e-24
2.44903e-23
-4.82838e-24
1.59596e-22
-2.91703e-23
9.96879e-22
-1.59996e-22
-6.08634e-22
4.76268e-21
2.91338e-18
6.35148e-16
-4.13188e-22
2.76438e-17
4.61501e-24
5.00139e-21
2.05738e-26
-3.29445e-23
1.54156e-28
-2.32992e-25
8.57609e-31
-1.09554e-27
2.07889e-32
-4.33943e-30
1.63347e-32
-6.31047e-32
2.18906e-32
-3.63341e-32
1.89476e-31
-1.46922e-31
1.71541e-30
-1.04485e-30
1.37418e-29
-7.16475e-30
9.84565e-29
-4.46273e-29
5.89934e-28
-2.35963e-28
3.36912e-27
-1.21658e-27
1.67378e-26
-5.11667e-27
7.60564e-26
-1.99781e-26
3.64667e-25
-8.54219e-26
1.90592e-24
-3.99444e-25
1.25024e-23
-2.37625e-24
1.06938e-22
-2.10961e-23
7.88321e-22
-1.32386e-22
-6.15301e-22
4.53724e-21
3.21809e-18
3.01503e-16
1.72672e-20
9.37426e-18
6.3895e-24
1.59149e-21
4.30015e-26
-2.77378e-23
2.75261e-28
-2.13446e-25
1.31573e-30
-1.10129e-27
1.10157e-32
-5.47455e-30
4.02572e-33
-3.69016e-32
4.85952e-33
-5.41455e-33
4.34209e-32
-2.52351e-32
4.07113e-31
-1.96541e-31
3.43566e-30
-1.48056e-30
2.58206e-29
-1.00237e-29
1.64976e-28
-5.8395e-29
1.01729e-27
-3.30862e-28
4.9974e-27
-1.39339e-27
2.37149e-26
-5.95633e-27
1.26062e-25
-2.77987e-26
7.68027e-25
-1.48681e-25
7.16412e-24
-1.63613e-24
8.17716e-23
-1.80691e-23
6.36654e-22
-9.11052e-23
-5.09887e-22
4.20108e-21
1.86674e-18
9.6886e-17
7.78913e-21
2.05256e-18
1.15313e-23
2.78028e-22
5.4488e-26
-1.58794e-23
3.62901e-28
-1.53058e-25
2.15282e-30
-9.76616e-28
1.38096e-32
-5.27924e-30
9.15248e-34
-3.5941e-32
9.95348e-34
-1.37004e-33
9.0526e-33
-4.36417e-33
8.79988e-32
-3.58236e-32
7.87559e-31
-2.94266e-31
6.27596e-30
-2.15698e-30
4.33152e-29
-1.37895e-29
2.85188e-28
-8.39477e-29
1.38863e-27
-3.59406e-28
7.23725e-27
-1.74848e-27
4.11985e-26
-8.24058e-27
3.1003e-25
-6.52823e-26
6.06195e-24
-1.92401e-24
6.32271e-23
-1.30635e-23
2.99861e-22
3.85559e-23
2.8875e-22
1.47486e-21
9.40303e-19
1.85067e-17
2.70079e-21
3.90645e-19
9.10912e-24
1.08259e-24
7.04741e-26
-7.05716e-24
3.66496e-28
-8.28534e-26
2.59973e-30
-6.49078e-28
1.94795e-32
-4.43987e-30
1.11305e-33
-3.31826e-32
3.61611e-34
-7.87756e-34
1.65588e-33
-8.0844e-34
1.7829e-32
-6.3386e-33
1.70251e-31
-5.63551e-32
1.44217e-30
-4.46391e-31
1.07235e-29
-3.10548e-30
7.41194e-29
-1.99278e-29
3.66996e-28
-8.96521e-29
2.15981e-27
-5.17833e-28
1.20143e-26
-2.01593e-27
1.65624e-25
-5.58519e-26
7.32972e-24
-3.68604e-24
1.6263e-23
1.28461e-23
-1.23645e-22
1.915e-22
8.38346e-22
-1.33996e-21
2.73126e-19
2.11682e-18
9.37391e-22
5.93634e-20
5.26045e-24
-1.93939e-23
5.57764e-26
-2.10981e-24
3.85469e-28
-2.92702e-26
2.2662e-30
-2.74734e-28
1.93582e-32
-2.32083e-30
1.46342e-33
-2.12905e-32
1.77734e-34
-3.5012e-34
2.38924e-34
-1.39088e-34
3.41271e-33
-1.09279e-33
3.48612e-32
-1.04193e-32
3.14383e-31
-8.89411e-32
2.50097e-30
-6.67543e-31
1.79431e-29
-4.41759e-30
9.50369e-29
-2.31315e-29
6.27167e-28
-1.77975e-28
2.4674e-27
1.36107e-28
7.07862e-26
-1.71787e-26
7.03199e-24
-3.01348e-24
-3.01566e-23
3.98861e-23
-5.78462e-22
3.61352e-22
1.34922e-21
-3.52409e-21
4.55847e-20
1.81122e-19
2.43565e-22
6.18292e-21
1.85423e-24
-6.08771e-24
2.44337e-26
-3.97789e-25
2.19883e-28
-6.21427e-27
1.74904e-30
-6.7118e-29
1.52074e-32
-6.71691e-31
3.27545e-34
-7.27085e-33
3.81111e-35
-1.05801e-34
3.98309e-35
-2.24333e-35
6.27144e-34
-1.82996e-34
6.78864e-33
-1.85849e-33
6.51225e-32
-1.70256e-32
5.50121e-31
-1.37338e-31
4.06682e-30
-9.06063e-31
2.7242e-29
-9.73069e-30
1.19502e-28
3.30909e-30
-1.81192e-28
8.59661e-28
4.74838e-27
2.43509e-26
5.53343e-24
2.90117e-25
-8.86826e-23
6.76484e-23
-1.00882e-21
4.8562e-22
1.66138e-21
-5.01387e-21
5.39023e-21
1.40135e-20
4.01675e-23
4.68978e-22
3.81895e-25
-1.0135e-24
5.77552e-27
-5.01e-26
6.15166e-29
-8.36535e-28
6.04103e-31
-9.99116e-30
6.44143e-33
-1.14018e-31
1.02986e-34
-1.39753e-33
6.73694e-36
-2.07134e-35
6.77639e-36
-3.3819e-36
1.10371e-34
-2.96386e-35
1.25748e-33
-3.19113e-34
1.27974e-32
-3.12364e-33
1.14379e-31
-2.7053e-32
8.60739e-31
-1.76276e-31
6.95649e-30
-4.73819e-30
-3.7647e-30
4.57955e-29
-1.11646e-27
1.55522e-27
-3.64474e-26
5.71997e-26
-5.07072e-25
2.2773e-24
-1.40641e-22
8.42834e-23
-1.23478e-21
5.29704e-22
1.69662e-21
-5.38289e-21
5.21424e-22
9.87057e-22
4.40275e-24
2.77317e-23
5.06329e-26
-1.12776e-25
8.26137e-28
-4.51088e-27
9.84549e-30
-7.68008e-29
1.11821e-31
-9.81652e-31
1.3753e-33
-1.23762e-32
2.74984e-35
-1.65968e-34
1.08016e-36
-2.51039e-36
1.05976e-36
-4.69656e-37
1.85393e-35
-4.6236e-36
2.2116e-34
-5.25834e-35
2.38069e-33
-5.48199e-34
2.25106e-32
-5.06977e-33
1.68817e-31
-3.38831e-32
3.18297e-30
-1.46441e-30
-5.08728e-29
7.95395e-29
-1.95235e-27
2.08065e-27
-8.18095e-26
9.30798e-26
-3.75047e-24
3.4133e-24
-1.62118e-22
8.58671e-23
-1.21414e-21
4.93576e-22
1.48878e-21
-4.76331e-21
4.34462e-23
6.04473e-23
3.54994e-25
1.26625e-24
4.71481e-27
-9.10913e-27
7.89869e-29
-3.01162e-28
1.01337e-30
-5.02946e-30
1.27829e-32
-6.70776e-32
1.72742e-34
-9.08401e-34
3.79709e-36
-1.29365e-35
1.39377e-37
-1.97837e-37
1.64135e-37
-6.18397e-38
2.96095e-36
-6.91235e-37
3.68253e-35
-8.28484e-36
4.18395e-34
-9.18306e-35
4.17859e-33
-8.92037e-34
3.26022e-32
-7.17481e-33
8.43671e-31
-2.25513e-31
-8.5492e-29
9.69598e-29
-2.50228e-27
2.34896e-27
-1.26087e-25
1.21131e-25
-5.25088e-24
3.76445e-24
-1.51583e-22
7.56622e-23
-1.01364e-21
4.03695e-22
1.14504e-21
-3.61985e-21
3.16839e-24
3.12507e-24
2.26488e-26
4.21201e-26
3.22355e-28
-5.52011e-28
5.33109e-30
-1.51045e-29
7.15844e-32
-2.40342e-31
9.71387e-34
-3.27973e-33
1.39071e-35
-4.64493e-35
2.76357e-37
-6.83914e-37
1.35628e-38
-1.05363e-38
2.61746e-38
-7.83308e-39
4.46551e-37
-9.8539e-38
5.78521e-36
-1.24279e-36
6.92865e-35
-1.46305e-35
7.28035e-34
-1.45811e-34
7.25295e-33
-2.58625e-33
9.29896e-32
5.64815e-32
-9.99448e-29
9.7825e-29
-2.68352e-27
2.33575e-27
-1.54171e-25
1.31821e-25
-5.37039e-24
3.53132e-24
-1.21868e-22
5.92777e-23
-7.40643e-22
2.94174e-22
7.81938e-22
-2.41799e-21
2.00653e-25
1.32562e-25
1.20272e-27
8.36033e-28
1.64639e-29
-2.49149e-29
2.60982e-31
-5.59209e-31
3.58956e-33
-8.31891e-33
5.09247e-35
-1.14212e-34
7.51058e-37
-1.64732e-36
1.38508e-38
-2.45246e-38
1.36654e-39
-4.02765e-40
3.57207e-39
-9.51745e-40
6.32408e-38
-1.33152e-38
8.53966e-37
-1.76575e-37
1.07716e-35
-2.202e-36
1.18334e-34
-2.2983e-35
1.37231e-33
-6.81607e-34
-5.05899e-32
1.17598e-31
-9.58774e-29
8.608e-29
-2.51461e-27
2.08302e-27
-1.56494e-25
1.23469e-25
-4.64303e-24
2.91203e-24
-8.67281e-23
4.18126e-23
-4.81506e-22
1.9231e-22
4.7895e-22
-1.43957e-21
1.05416e-26
4.42231e-27
5.34939e-29
-1.95446e-30
6.1835e-31
-8.1322e-31
9.21089e-33
-1.47844e-32
1.27412e-34
-2.03698e-34
1.83908e-36
-2.76744e-36
2.70209e-38
-3.96336e-38
2.19758e-40
-5.83555e-40
1.13937e-40
-1.54424e-41
4.7366e-40
-1.11848e-40
8.36216e-39
-1.69182e-39
1.1784e-37
-2.36109e-38
1.56515e-36
-3.09492e-37
1.82947e-35
-4.03822e-36
3.06421e-34
-6.34893e-35
-1.0006e-31
1.38204e-31
-7.95495e-29
6.75133e-29
-2.0971e-27
1.68054e-27
-1.35798e-25
1.01366e-25
-3.50913e-24
2.14034e-24
-5.5359e-23
2.67222e-23
-2.8055e-22
1.12929e-22
2.66382e-22
-7.71324e-22
4.35772e-28
1.09135e-28
1.95643e-30
-7.39557e-31
1.63365e-32
-2.26428e-32
2.26209e-34
-3.35141e-34
3.09222e-36
-4.25132e-36
4.43293e-38
-5.59093e-38
6.75255e-40
-7.73632e-40
6.38126e-42
-1.09686e-41
4.38303e-42
-9.02738e-43
6.22406e-41
-1.25062e-41
1.02409e-39
-2.00426e-40
1.51064e-38
-2.94862e-39
2.11458e-37
-4.02349e-38
2.95102e-36
-1.09144e-36
8.73818e-36
5.23164e-35
-1.10721e-31
1.27719e-31
-5.83484e-29
4.76581e-29
-1.57041e-27
1.23137e-27
-1.02615e-25
7.37566e-26
-2.35137e-24
1.41116e-24
-3.19003e-23
1.55172e-23
-1.46654e-22
5.92989e-23
1.37582e-22
-3.76191e-22
1.33633e-29
1.81805e-30
5.8894e-32
-2.57653e-32
3.74501e-34
-4.14335e-34
4.80748e-36
-4.96476e-36
6.33092e-38
-5.76361e-38
8.68014e-40
-7.17653e-40
1.22141e-41
-9.39592e-42
2.05908e-43
-1.2696e-43
3.11955e-43
-7.15477e-44
6.83375e-42
-1.2953e-42
1.15286e-40
-2.19327e-41
1.78575e-39
-3.40566e-40
2.63468e-38
-4.93848e-39
4.32739e-37
-1.78015e-37
-3.65602e-35
7.79948e-35
-9.54967e-32
9.99876e-32
-3.82078e-29
3.04034e-29
-1.06023e-27
8.20201e-28
-6.82842e-26
4.78549e-26
-1.40595e-24
8.3678e-25
-1.66407e-23
8.18995e-24
-6.84429e-23
2.74745e-23
6.90526e-23
-1.70633e-22
2.82385e-31
1.73936e-32
1.24004e-33
-4.15216e-34
5.45386e-36
-4.48895e-36
6.30951e-38
-4.35208e-38
7.80827e-40
-4.59876e-40
1.01558e-41
-5.31074e-42
1.4025e-43
-6.46582e-44
9.5358e-45
-1.02989e-45
2.68767e-44
-5.94524e-45
6.68841e-43
-1.2241e-43
1.18299e-41
-2.19251e-42
1.93055e-40
-3.59065e-41
3.064e-39
-6.94308e-40
5.87857e-38
2.32332e-39
-5.06708e-35
7.60884e-35
-6.91643e-32
6.81032e-32
-2.24281e-29
1.75373e-29
-6.45941e-28
4.95929e-28
-4.02589e-26
2.77495e-26
-7.52081e-25
4.46215e-25
-7.8601e-24
3.92141e-24
-2.81301e-23
1.08953e-23
3.62652e-23
-7.52644e-23
3.66097e-33
6.39117e-35
1.72762e-35
-2.56985e-36
4.59838e-38
-2.07927e-38
4.84147e-40
-1.63686e-40
5.56937e-42
-1.55909e-42
6.70785e-44
-1.63904e-44
3.76264e-46
-1.82883e-46
2.26864e-46
-2.10473e-47
2.57749e-45
-4.706e-46
5.86321e-44
-1.03968e-44
1.09463e-42
-1.97599e-43
1.89383e-41
-3.40945e-42
2.15269e-40
-1.14302e-40
-1.31305e-39
1.57754e-38
-4.55174e-35
5.89228e-35
-4.31947e-32
4.0754e-32
-1.18063e-29
9.12481e-30
-3.5459e-28
2.71215e-28
-2.10753e-26
1.43678e-26
-3.59843e-25
2.13423e-25
-3.35469e-24
1.69592e-24
-9.87399e-24
3.44289e-24
2.11838e-23
-3.47436e-23
2.14184e-35
-1.62586e-56
1.35179e-37
-1.01016e-56
1.65622e-40
-1.99836e-57
1.57567e-42
-2.13887e-55
1.65748e-44
-1.78342e-53
1.84471e-46
-8.12262e-52
2.65869e-48
-3.07286e-50
6.27978e-48
-1.20869e-48
1.97964e-46
-3.3176e-47
4.55058e-45
-7.81277e-46
9.01514e-44
-1.58004e-44
1.65624e-42
-2.9152e-43
3.1943e-41
-1.18522e-41
-8.15363e-39
1.82465e-38
-3.21359e-35
3.81206e-35
-2.34812e-32
2.14676e-32
-5.55804e-30
4.26132e-30
-1.74688e-28
1.33373e-28
-9.78359e-27
6.61719e-27
-1.53537e-25
9.10869e-26
-1.28756e-24
6.5789e-25
-2.75436e-24
6.93801e-25
1.34156e-23
-1.78266e-23
1.01429e-56
-8.18345e-59
8.82942e-59
-3.79715e-59
1.01629e-57
-9.41143e-59
8.86653e-56
-1.42897e-56
7.42763e-54
-9.39008e-55
3.50059e-52
-4.68333e-53
1.36514e-50
-1.98027e-51
4.39904e-49
-6.83044e-50
1.25854e-47
-2.02214e-48
3.08187e-46
-5.09086e-47
6.50403e-45
-1.09844e-45
1.28497e-43
-2.52271e-44
2.78739e-42
1.18543e-43
-8.52739e-39
1.42852e-38
-1.87512e-35
2.09365e-35
-1.11226e-32
9.92253e-33
-2.32632e-30
1.77254e-30
-7.67146e-29
5.84903e-29
-4.00852e-27
2.69262e-27
-5.80656e-26
3.44167e-26
-4.40863e-25
2.26708e-25
-4.88065e-25
-2.4847e-26
8.35366e-24
-9.894e-24
3.38443e-59
-5.29395e-61
4.36645e-60
-1.53912e-61
1.72069e-59
-3.0123e-60
3.73066e-57
-4.68575e-58
2.64062e-55
-3.37769e-56
1.38352e-53
-1.86762e-54
6.11608e-52
-8.68278e-53
2.20166e-50
-3.24554e-51
6.79597e-49
-1.0371e-49
1.78345e-47
-2.80098e-48
4.03505e-46
-6.47088e-47
5.25844e-45
-2.25625e-45
-4.71085e-44
6.59604e-43
-5.95923e-39
8.67577e-39
-9.17422e-36
9.78242e-36
-4.56885e-33
3.99391e-33
-8.57688e-31
6.49741e-31
-2.97345e-29
2.26203e-29
-1.43737e-27
9.58388e-28
-1.92768e-26
1.13879e-26
-1.33107e-25
6.8523e-26
1.52755e-26
-7.70152e-26
4.64659e-24
-5.37264e-24
1.02893e-61
-2.32266e-63
1.3402e-62
-5.75291e-64
5.58729e-61
-7.62923e-62
1.02369e-58
-1.18885e-59
8.02656e-57
-9.59582e-58
4.72044e-55
-5.94889e-56
2.31431e-53
-3.05817e-54
9.07754e-52
-1.24239e-52
3.03658e-50
-4.30585e-51
8.5697e-49
-1.25372e-49
2.09064e-47
-3.1675e-48
4.07292e-46
-1.14759e-46
-2.30654e-43
6.13419e-43
-3.18123e-39
4.22438e-39
-3.76215e-36
3.86229e-36
-1.61107e-33
1.38285e-33
-2.74867e-31
2.06862e-31
-1.00321e-29
7.60013e-30
-4.45356e-28
2.94243e-28
-5.54081e-27
3.25205e-27
-3.48814e-26
1.78737e-26
4.09838e-26
-2.03166e-26
2.14929e-24
-2.58333e-24
2.75079e-64
-6.67526e-66
3.87198e-65
-2.41003e-66
1.1746e-62
-1.34244e-63
2.1338e-60
-2.17322e-61
1.89382e-58
-2.00793e-59
1.26246e-56
-1.41887e-57
6.89752e-55
-8.11835e-56
2.95629e-53
-3.60256e-54
1.07649e-51
-1.36322e-52
3.28406e-50
-4.31267e-51
8.7867e-49
-1.4699e-49
1.60476e-47
9.10802e-48
-1.85092e-43
3.616e-43
-1.33565e-39
1.65313e-39
-1.27943e-36
1.2694e-36
-4.7985e-34
4.04441e-34
-7.51697e-32
5.6086e-32
-2.89091e-30
2.17418e-30
-1.17095e-28
7.64432e-29
-1.35313e-27
7.86085e-28
-7.77093e-27
3.94024e-27
9.22438e-27
1.66661e-27
7.77581e-25
-1.01865e-24
5.33925e-67
-8.85858e-69
1.25604e-67
-1.33838e-68
1.65608e-64
-1.41015e-65
3.14081e-62
-2.4792e-63
3.22302e-60
-2.71893e-61
2.47116e-58
-2.25241e-59
1.51219e-56
-1.44769e-57
7.11197e-55
-7.08727e-56
2.83653e-53
-2.96127e-54
9.45585e-52
-1.03652e-52
1.79283e-50
-4.71288e-51
-2.20616e-48
1.16045e-47
-9.17943e-44
1.52276e-43
-4.39571e-40
5.11475e-40
-3.53406e-37
3.38839e-37
-1.17847e-34
9.72961e-35