/*--------------------------------*- C++ -*----------------------------------*\
| =========                 |                                                 |
| \\      /  F ield         | OpenFOAM: The Open Source CFD Toolbox           |
|  \\    /   O peration     | Version:  2206                                  |
|   \\  /    A nd           | Website:  www.openfoam.com                      |
|    \\/     M anipulation  |                                                 |
\*---------------------------------------------------------------------------*/
FoamFile
{
    version     2.0;
    format      ascii;
    arch        "LSB;label=32;scalar=64";
    class       volScalarField;
    location    "0.7";
    object      p;
}
// * * * * * * * * * * * * * * * * * * * * * * * * * * * * * * * * * * * * * //

dimensions      [1 -1 -2 0 0 0 0];

internalField   nonuniform List<scalar> 
2268
(
1423.03
1422.24
1420.92
1418.9
1416.36
1413.38
1409.99
1406.16
1402.11
1397.85
1393.47
1389.04
1384.65
1380.37
1376.27
1372.39
1368.77
1365.51
1362.95
1360.53
1358.99
1357.84
1356.46
1246.27
1245.28
1243.96
1241.69
1239.01
1235.82
1232.18
1228.14
1223.79
1219.23
1214.56
1209.85
1205.17
1200.67
1196.35
1192.14
1188.34
1184.47
1181.15
1176.94
1173.39
1166.05
1168.64
1072.03
1070.94
1069.25
1066.51
1063.55
1059.92
1055.77
1051.19
1046.27
1041.14
1035.9
1030.68
1025.59
1020.58
1015.88
1011.51
1007.49
1003.84
1000.59
996.38
994.513
984.963
990.264
900.816
899.438
897.147
893.815
890.096
885.722
880.745
875.257
869.386
863.276
857.053
850.825
844.706
839.017
833.806
829.131
825.059
821.645
818.935
816.776
815.179
815.24
817.546
733.553
731.772
728.582
724.439
719.692
714.071
707.716
700.779
693.445
685.953
678.56
671.52
664.976
658.464
652.222
646.342
641.018
636.597
633.201
630.916
630.197
631.068
632.841
569.986
567.855
563.863
558.446
552.193
544.919
536.683
527.67
518.088
508.123
497.918
487.558
477.181
467.503
459.026
451.52
445.122
441.433
439.839
439.761
440.161
440.632
440.44
410.732
407.397
403.579
397.096
388.888
378.986
367.801
355.861
343.634
331.547
320.158
309.462
299.265
289.615
280.351
272.325
266.208
261.742
257.99
254.222
252.036
253.316
253.657
261.025
255.869
251.944
242.311
229.943
216.262
201.57
185.887
169.486
153.036
137.867
124.287
111.962
101.101
90.8497
81.9932
74.8724
68.8223
66.1846
68.9826
69.1004
69.5492
58.8081
174.923
154.964
108.838
55.4618
71.9139
174.871
242.586
161.549
104.464
126.379
164.902
216.784
270.599
314.332
323.881
293.16
316.897
383.16
416.531
106.794
49.1001
24.713
18.0521
20.5787
51.6277
61.0901
19.1317
17.1175
41.1296
93.4875
138.816
185.463
263.436
259.158
238.951
228.396
253.148
360.393
52.9286
11.7714
6.49285
7.90477
15.6237
18.7824
10.4982
9.60991
12.5125
23.7761
36.8014
140.155
171.31
197.468
212.522
205.747
190.231
185.761
260.675
20.7439
0.181856
3.29634
-1.39369
5.58878
10.1138
7.35024
7.37926
9.34244
15.5554
44.1672
65.7269
96.1681
131.074
152.454
147.724
143.638
133.774
170.573
26.0164
1.08934
7.25691
4.359
3.87896
6.15779
5.97381
5.91645
6.42011
13.5277
21.6631
15.0227
14.1177
44.5409
79.766
74.4243
76.0599
78.5183
99.5548
35.7831
7.43095
15.0365
10.5968
5.8499
4.89643
5.12634
5.11878
5.043
11.27
5.42254
1.80937
-0.0836736
11.837
25.0095
23.1984
28.4074
36.6203
45.3329
50.0042
-0.0746062
8.21546
8.45114
4.25547
4.48232
4.66294
4.93031
4.87585
6.58008
5.58798
5.3492
8.15665
17.6364
18.6701
18.7214
19.1292
22.2121
26.5046
15.7777
8.33761
4.8062
3.51819
3.78944
4.03164
4.28964
4.66478
5.03095
7.3815
7.69261
8.92374
11.7047
16.1085
17.4498
18.0498
19.0282
19.3765
20.5107
156.279
150.3
139.715
128.153
114.62
98.7152
80.2681
60.735
43.4158
29.4652
21.6182
16.1289
11.6541
8.08282
5.38336
3.48664
2.2577
1.69932
1.68929
1.86167
1.74331
2.57796
5.88183
86.9072
82.7024
73.2614
58.384
43.0069
29.3936
17.1993
8.416
2.43433
0.913106
0.916917
0.980641
0.996148
1.01633
1.05182
1.09608
1.13787
1.19073
1.22755
1.24269
1.21762
1.28237
1.39952
43.6338
36.3707
24.8092
13.7722
5.76604
1.30873
0.693402
0.740806
0.66676
0.702024
0.71117
0.748733
0.777975
0.816958
0.867338
0.922549
0.981218
1.0747
1.12983
1.17514
1.20534
1.23595
1.31436
6.55642
2.58494
0.430924
0.35983
0.299929
0.242641
0.318206
0.388325
0.432657
0.575545
0.592064
0.645936
0.694504
0.738562
0.786717
0.837058
0.888756
0.944109
1.00412
1.06524
1.1292
1.18645
1.25469
-0.0291469
-0.0647857
-0.0520348
0.0398788
0.0766759
0.128868
0.255425
0.299366
0.344982
0.407508
0.445265
0.488072
0.530258
0.573204
0.618503
0.677887
0.739465
0.801272
0.863031
0.924913
0.988559
1.04818
1.12323
-0.154826
-0.188807
-0.126549
-0.063041
-0.0140165
0.0363248
0.107423
0.149419
0.199469
0.25464
0.301405
0.347297
0.394602
0.444281
0.498288
0.549091
0.604822
0.663551
0.724627
0.788232
0.855874
0.929467
1.00227
-0.248214
-0.252946
-0.222988
-0.181536
-0.133484
-0.0817714
-0.0273755
0.0176497
0.0644649
0.112569
0.159247
0.205962
0.253888
0.303519
0.354917
0.407945
0.463444
0.521468
0.581947
0.645074
0.711284
0.779737
0.855883
-0.343812
-0.344012
-0.322652
-0.289723
-0.248875
-0.204439
-0.159311
-0.11642
-0.072585
-0.0274764
0.0182132
0.0646625
0.112318
0.16144
0.212172
0.264673
0.319315
0.376333
0.435906
0.498236
0.563542
0.632478
0.706577
-0.443573
-0.439256
-0.423377
-0.398876
-0.366706
-0.329378
-0.290387
-0.250662
-0.209447
-0.166418
-0.122311
-0.0770034
-0.0303829
0.0176617
0.0672707
0.118639
0.172032
0.227699
0.28588
0.346838
0.410905
0.478577
0.550535
-0.552039
-0.545228
-0.533932
-0.515335
-0.488985
-0.457252
-0.4226
-0.385754
-0.346776
-0.30597
-0.263649
-0.219927
-0.174815
-0.128255
-0.0801263
-0.0302463
0.021611
0.0756848
0.132221
0.191485
0.253786
0.319497
0.389024
-0.673188
-0.668338
-0.658612
-0.641826
-0.617412
-0.588994
-0.557043
-0.522391
-0.485542
-0.446832
-0.40648
-0.36462
-0.321302
-0.276494
-0.230087
-0.181925
-0.131814
-0.079543
-0.02489
0.0323826
0.0925373
0.155861
0.222646
-0.805035
-0.803366
-0.793769
-0.775947
-0.750868
-0.724921
-0.694149
-0.661171
-0.62629
-0.589641
-0.551328
-0.511452
-0.470074
-0.427158
-0.38262
-0.336328
-0.288125
-0.237835
-0.185273
-0.130243
-0.0725301
-0.0119067
0.0518607
-0.943429
-0.943951
-0.934035
-0.91493
-0.889314
-0.862655
-0.833471
-0.802278
-0.769356
-0.734727
-0.698449
-0.660595
-0.621202
-0.580247
-0.537662
-0.493347
-0.447177
-0.399019
-0.348728
-0.296148
-0.241114
-0.183448
-0.122962
-1.08441
-1.08585
-1.07566
-1.05638
-1.02929
-1.0032
-0.975354
-0.945914
-0.914908
-0.882218
-0.847941
-0.812085
-0.77468
-0.735714
-0.695137
-0.652875
-0.608841
-0.562937
-0.51506
-0.465098
-0.412932
-0.358439
-0.301483
-1.22522
-1.22689
-1.2171
-1.19689
-1.17216
-1.14654
-1.1199
-1.09212
-1.06292
-1.03215
-0.999791
-0.965886
-0.930456
-0.893491
-0.854959
-0.81481
-0.772989
-0.729433
-0.684077
-0.636854
-0.587697
-0.536543
-0.483326
-1.36572
-1.36762
-1.35824
-1.34013
-1.31677
-1.2922
-1.26693
-1.24078
-1.21334
-1.18439
-1.15391
-1.12192
-1.08846
-1.0535
-1.01704
-0.979048
-0.939493
-0.898346
-0.855579
-0.811169
-0.765104
-0.717387
-0.668036
-1.50912
-1.50972
-1.50212
-1.48541
-1.46332
-1.44002
-1.41625
-1.39174
-1.366
-1.33883
-1.31018
-1.2801
-1.24859
-1.21566
-1.18129
-1.14547
-1.10821
-1.06951
-1.02936
-0.987785
-0.944834
-0.900572
-0.855107
-1.65485
-1.65593
-1.64926
-1.63322
-1.61198
-1.5899
-1.56768
-1.5448
-1.52075
-1.49533
-1.46852
-1.44033
-1.41077
-1.37986
-1.34758
-1.31396
-1.27901
-1.24274
-1.2052
-1.16645
-1.12657
-1.0857
-1.04403
-1.80229
-1.80502
-1.79839
-1.78313
-1.76248
-1.74163
-1.721
-1.69978
-1.67743
-1.65377
-1.62879
-1.6025
-1.57489
-1.546
-1.51582
-1.48438
-1.45172
-1.41788
-1.38291
-1.34692
-1.31003
-1.27241
-1.23435
-1.95051
-1.95496
-1.95041
-1.93446
-1.91436
-1.89492
-1.87601
-1.85652
-1.83591
-1.81404
-1.7909
-1.7665
-1.74085
-1.71397
-1.68588
-1.65661
-1.62622
-1.59477
-1.56232
-1.52901
-1.49497
-1.46042
-1.42567
-2.09834
-2.10285
-2.09894
-2.08512
-2.06692
-2.04949
-2.03253
-2.01488
-1.99607
-1.97603
-1.95475
-1.93225
-1.90855
-1.88367
-1.85765
-1.83054
-1.80239
-1.77327
-1.74329
-1.71256
-1.68124
-1.64957
-1.61784
-2.24585
-2.24936
-2.24685
-2.23566
-2.22028
-2.20532
-2.19051
-2.17479
-2.15784
-2.13966
-2.12025
-2.09965
-2.07789
-2.055
-2.03103
-2.00604
-1.9801
-1.95328
-1.9257
-1.89747
-1.86876
-1.83979
-1.81084
-2.39385
-2.39605
-2.39501
-2.38688
-2.37485
-2.3626
-2.35
-2.33625
-2.3212
-2.30488
-2.28734
-2.26863
-2.24878
-2.22786
-2.20592
-2.18303
-2.15926
-2.1347
-2.10946
-2.08366
-2.05748
-2.0311
-2.00477
-2.54341
-2.5446
-2.54481
-2.53975
-2.53114
-2.52156
-2.51111
-2.49932
-2.48614
-2.47166
-2.45596
-2.4391
-2.42115
-2.40217
-2.38222
-2.36139
-2.33976
-2.31742
-2.29449
-2.27109
-2.24737
-2.22353
-2.19977
-2.69541
-2.69612
-2.69733
-2.6951
-2.68957
-2.68242
-2.67397
-2.66404
-2.65267
-2.63998
-2.62607
-2.61102
-2.59491
-2.57782
-2.55984
-2.54104
-2.52152
-2.50137
-2.48072
-2.45969
-2.43843
-2.41712
-2.39596
-2.85045
-2.85094
-2.8532
-2.85347
-2.85044
-2.84534
-2.83869
-2.83048
-2.82081
-2.80981
-2.79761
-2.78431
-2.76999
-2.75475
-2.73868
-2.72188
-2.70443
-2.68645
-2.66806
-2.64939
-2.63059
-2.61185
-2.59335
-3.0089
-3.00925
-3.01277
-3.01504
-3.01387
-3.01042
-3.00534
-2.99867
-2.99055
-2.98113
-2.97055
-2.95891
-2.94631
-2.93286
-2.91866
-2.90379
-2.88839
-2.87255
-2.8564
-2.8401
-2.82379
-2.80766
-2.79192
-3.17105
-3.1713
-3.17616
-3.1798
-3.17986
-3.1777
-3.17392
-3.16859
-3.16187
-3.1539
-3.14482
-3.13475
-3.12379
-3.11206
-3.09966
-3.08669
-3.07328
-3.05955
-3.04563
-3.03169
-3.01789
-3.00444
-2.99155
-3.33708
-3.33734
-3.3433
-3.34757
-3.34835
-3.34715
-3.34441
-3.34022
-3.33472
-3.32806
-3.32036
-3.31176
-3.30235
-3.29226
-3.28159
-3.27046
-3.25899
-3.24732
-3.2356
-3.22401
-3.21272
-3.20198
-3.19202
-3.50681
-3.50735
-3.51379
-3.51806
-3.51918
-3.51864
-3.51672
-3.51347
-3.50903
-3.50353
-3.4971
-3.48985
-3.4819
-3.47336
-3.46435
-3.45498
-3.44539
-3.43572
-3.42615
-3.41686
-3.40807
-3.40002
-3.39302
-3.67979
-3.68082
-3.68707
-3.6909
-3.69213
-3.69203
-3.69072
-3.68823
-3.68469
-3.68023
-3.67494
-3.66894
-3.66235
-3.65527
-3.64782
-3.64012
-3.63233
-3.6246
-3.61709
-3.61003
-3.60366
-3.59825
-3.59413
-3.85543
-3.85695
-3.86253
-3.86573
-3.86693
-3.86709
-3.86622
-3.86435
-3.86159
-3.85804
-3.85378
-3.84893
-3.84359
-3.83787
-3.83189
-3.82578
-3.81969
-3.81378
-3.80824
-3.80331
-3.79923
-3.79632
-3.79495
-4.03366
-4.03508
-4.03963
-4.04218
-4.04328
-4.04358
-4.04305
-4.04169
-4.03959
-4.03683
-4.0335
-4.0297
-4.02551
-4.02105
-4.01644
-4.01181
-4.00732
-4.00312
-3.99942
-3.99647
-3.99452
-3.99392
-3.99506
-4.2128
-4.21435
-4.21788
-4.2199
-4.22088
-4.22127
-4.22099
-4.22006
-4.21853
-4.21649
-4.21399
-4.21113
-4.208
-4.20471
-4.20137
-4.19811
-4.19508
-4.19247
-4.19046
-4.18932
-4.18931
-4.19078
-4.19413
-4.39287
-4.39441
-4.397
-4.39861
-4.39948
-4.39991
-4.39985
-4.39928
-4.39826
-4.39685
-4.39511
-4.39312
-4.39095
-4.38873
-4.38655
-4.38454
-4.38286
-4.38169
-4.38122
-4.3817
-4.38341
-4.38669
-4.39195
-4.57349
-4.57495
-4.57678
-4.57807
-4.57885
-4.57933
-4.57945
-4.57921
-4.57865
-4.57781
-4.57675
-4.57554
-4.57426
-4.57301
-4.57189
-4.57103
-4.57057
-4.5707
-4.5716
-4.57352
-4.57673
-4.58156
-4.5884
-4.7544
-4.75579
-4.75704
-4.75812
-4.75883
-4.75937
-4.75967
-4.75974
-4.75959
-4.75928
-4.75885
-4.75837
-4.7579
-4.75754
-4.75739
-4.75757
-4.75822
-4.7595
-4.76162
-4.7648
-4.7693
-4.77543
-4.78358
-4.93547
-4.93684
-4.93764
-4.93861
-4.9393
-4.93992
-4.94041
-4.94077
-4.94103
-4.94121
-4.94137
-4.94156
-4.94184
-4.94231
-4.94305
-4.94418
-4.94583
-4.94816
-4.95136
-4.95564
-4.96124
-4.96847
-4.97768
-5.1164
-5.11781
-5.11829
-5.1192
-5.11992
-5.12064
-5.12132
-5.12197
-5.12261
-5.12325
-5.12396
-5.12476
-5.12574
-5.12696
-5.12851
-5.1305
-5.13306
-5.13632
-5.14046
-5.14568
-5.15223
-5.16036
-5.17041
-5.29674
-5.29814
-5.29841
-5.2993
-5.30006
-5.30089
-5.30177
-5.30268
-5.30366
-5.30473
-5.30592
-5.30728
-5.30887
-5.31076
-5.31302
-5.31575
-5.31908
-5.32312
-5.32805
-5.33405
-5.34134
-5.35018
-5.36085
-5.47688
-5.47819
-5.47846
-5.47934
-5.4802
-5.48117
-5.48224
-5.48343
-5.48476
-5.48623
-5.4879
-5.4898
-5.49197
-5.49449
-5.49742
-5.50086
-5.5049
-5.50967
-5.51532
-5.52201
-5.52996
-5.53939
-5.55059
-5.65942
-5.66104
-5.66143
-5.66238
-5.66342
-5.66463
-5.66602
-5.66759
-5.66938
-5.67139
-5.67366
-5.67623
-5.67914
-5.68245
-5.68622
-5.69054
-5.69549
-5.70119
-5.70777
-5.71539
-5.72422
-5.7345
-5.74648
18.4535
19.4456
20.4207
19.483
1.50327
1.70702
2.30717
2.17298
1.4382
1.58214
1.73789
1.90698
1.34729
1.46607
1.5989
1.75137
1.21984
1.33574
1.4614
1.59466
1.09041
1.19698
1.31318
1.43654
0.944122
1.04694
1.1573
1.27378
0.791886
0.890218
0.995112
1.10567
0.632819
0.727026
0.827139
0.93255
0.468143
0.558325
0.653966
0.754713
0.298399
0.384517
0.475822
0.572261
0.124008
0.20588
0.29274
0.38493
-0.0547133
0.022562
0.104519
0.191902
-0.237455
-0.165238
-0.0889403
-0.00757409
-0.423838
-0.357277
-0.287455
-0.213748
-0.61328
-0.552698
-0.490175
-0.425669
-0.80512
-0.750599
-0.695651
-0.640866
-0.998672
-0.949971
-0.902297
-0.856779
-1.19335
-1.15026
-1.10872
-1.07115
-1.38855
-1.35005
-1.31383
-1.28272
-1.58412
-1.54945
-1.51724
-1.49078
-1.78015
-1.74867
-1.71933
-1.69547
-1.9769
-1.9482
-1.92139
-1.89852
-2.17466
-2.14873
-2.12462
-2.10324
-2.37365
-2.35069
-2.32943
-2.31047
-2.57397
-2.5542
-2.53602
-2.51986
-2.77562
-2.7593
-2.74454
-2.73158
-2.97852
-2.96597
-2.95514
-2.94621
-3.18243
-3.17392
-3.16758
-3.16365
-3.38692
-3.38264
-3.38114
-3.38291
-3.59148
-3.59141
-3.59482
-3.60249
-3.79556
-3.79946
-3.8075
-3.82076
-3.99862
-4.00607
-4.01817
-4.03626
-4.20025
-4.21071
-4.22613
-4.248
-4.40021
-4.41308
-4.43105
-4.4556
-4.59841
-4.61313
-4.63294
-4.6592
-4.79495
-4.81105
-4.83209
-4.85933
-4.99011
-5.00721
-5.02903
-5.05674
-5.18366
-5.20148
-5.22379
-5.25167
-5.37468
-5.39295
-5.41551
-5.44334
-5.56488
-5.58349
-5.60617
-5.63384
-5.76153
-5.7808
-5.80395
-5.83182
14.3119
2.53661
2.90702
3.2188
3.47081
3.69422
3.90956
4.29286
3.81459
4.58077
7.01368
9.60781
11.8395
15.4775
17.3567
18.1121
19.1833
19.1548
20.2606
2.20654
2.53458
2.71889
3.0125
3.24562
3.45652
3.64046
3.90785
3.69688
4.7488
5.93634
9.02492
12.7038
15.656
17.4599
18.2858
19.4831
19.105
20.4267
2.04505
2.31328
2.56292
2.81134
3.03001
3.23318
3.36816
3.42819
3.53795
4.59925
5.65416
8.15336
12.6459
15.8223
17.6879
18.5874
19.5739
18.8194
21.1917
1.91919
2.16007
2.38625
2.61418
2.82566
3.02162
3.11212
3.05391
3.37187
4.2786
5.45035
7.01571
10.7643
14.4257
17.5694
18.7028
19.1231
18.2327
20.5558
1.76203
1.98092
2.20167
2.4185
2.62512
2.81691
2.91098
2.87538
3.13085
3.81988
4.77362
5.8681
8.99611
10.6683
15.0793
17.6543
17.8401
16.9482
19.9546
1.5979
1.80435
2.01412
2.22129
2.42174
2.60687
2.72889
2.77593
2.91328
3.34098
3.99602
5.64216
5.34914
7.05371
8.68475
13.2135
15.1012
14.427
19.1718
1.42751
1.62293
1.82251
2.02165
2.21383
2.38779
2.5233
2.63263
2.70602
2.86396
3.15057
4.899
5.98651
3.90668
3.17676
6.42351
11.3216
10.7678
16.4862
1.25204
1.43789
1.62776
1.82001
2.0029
2.16574
2.29178
2.41493
2.44325
2.19802
1.99817
-0.710303
2.15278
2.53974
4.57334
4.17204
8.35696
7.3881
12.3792
1.07224
1.2495
1.42945
1.61236
1.79073
1.94311
2.05031
2.1604
2.18874
1.48118
1.50074
-1.20501
0.690155
3.47858
7.72904
5.39514
7.0681
5.6959
9.76298
0.888504
1.0586
1.22798
1.40833
1.57983
1.72395
1.81049
1.89796
1.9969
0.91
1.26935
-4.96413
0.732527
4.93052
6.17147
5.40179
6.63806
5.27622
9.21105
0.701064
0.86667
1.02168
1.2046
1.3715
1.51065
1.58146
1.63919
1.75957
0.609536
-2.6559
-6.34484
1.95836
4.56465
5.6929
5.18339
6.35708
5.03808
3.92299
0.509538
0.677504
0.805586
1.00314
1.16645
1.30191
1.35854
1.43109
1.54551
0.784443
-1.08862
0.658502
1.21503
4.60337
5.53653
5.41612
6.17937
5.10111
4.42682
0.31136
0.480976
0.586997
0.808267
0.971802
1.08969
1.13347
1.23104
1.4059
1.01925
-0.158106
0.00117102
1.17883
3.77338
5.70571
6.14609
6.29865
5.39919
5.25221
0.104263
0.276588
0.359462
0.621063
0.775943
0.865499
0.912496
1.04693
1.29304
1.32733
0.686894
0.447935
2.17035
3.64568
5.92301
6.85408
6.57011
5.77605
5.83033
-0.113852
0.0578272
0.112401
0.443357
0.572474
0.602015
0.670731
0.903529
1.26962
1.55697
1.35451
1.12811
2.31458
3.62098
4.99738
6.52896
6.6029
5.91536
5.9427
-0.342679
-0.190275
-0.172785
0.236684
0.324754
0.271263
0.367519
0.75066
1.22376
1.80432
2.0018
1.9982
1.35141
2.75756
4.15097
4.75128
6.0405
5.379
5.90123
-0.575526
-0.450916
-0.531479
-0.165008
-0.165348
-0.26445
-0.0421956
0.565082
1.27283
1.93936
2.15165
2.12372
-0.282514
1.77161
4.2187
2.81461
4.85565
3.98651
6.02154
-0.806736
-0.726644
-0.854307
-0.807818
-1.07822
-1.2233
-0.592795
0.207197
1.13288
1.84858
1.87502
0.372606
-1.55549
1.45015
4.70501
2.13451
3.59287
2.16669
6.71037
-1.03274
-0.997216
-1.108
-1.2731
-1.6395
-1.7677
-1.26717
-0.460151
0.492255
1.3701
0.0207706
-2.60818
-2.43122
0.757793
2.44016
1.93805
2.99391
1.12606
7.92427
-1.25217
-1.2453
-1.34465
-1.51542
-1.68954
-1.98644
-2.08565
-1.64736
-1.63516
-0.85175
-3.78172
-4.49295
-2.08047
0.267064
1.56904
1.58117
2.6181
0.539031
5.26063
-1.4644
-1.47229
-1.58043
-1.77185
-1.66962
-2.19783
-3.01374
-4.78744
-7.18341
-3.63696
-5.46586
-4.46925
-1.72536
-0.0443522
1.07029
1.13676
2.05915
0.0215388
3.57917
-1.66982
-1.67933
-1.79163
-2.05484
-1.8134
-2.42092
-4.1158
-9.73816
-9.33415
-6.20169
-5.37133
-4.108
-2.11024
-0.472647
0.579736
0.681152
1.45215
-0.304265
3.41467
-1.8748
-1.87107
-1.96713
-2.26346
-2.26562
-2.69956
-5.18419
-8.59841
-7.8379
-6.27038
-5.38981
-4.39116
-2.69336
-1.08267
-0.0226159
0.16903
0.921699
-0.214941
4.1473
-2.08324
-2.06608
-2.12344
-2.34931
-2.49879
-2.87417
-4.50152
-6.44459
-6.75999
-6.24643
-5.69679
-4.86334
-3.41546
-1.91039
-0.829889
-0.538292
0.0920135
-0.211168
12.4043
-2.29261
-2.2737
-2.28776
-2.38627
-2.50496
-2.78824
-3.73361
-5.24945
-6.20832
-6.33368
-6.09228
-5.45231
-4.24733
-2.88787
-1.83261
-1.49103
-0.955063
-1.18145
18.5213
-2.50422
-2.48899
-2.48773
-2.52935
-2.59966
-2.77485
-3.42369
-4.68612
-5.88375
-6.51812
-6.6743
-6.26587
-5.22847
-3.97159
-2.95403
-2.68827
-2.14163
-2.43623
22.7483
-2.71803
-2.70553
-2.69828
-2.71042
-2.74197
-2.86833
-3.37753
-4.49459
-5.83809
-6.8631
-7.398
-7.22743
-6.31413
-5.10588
-4.11547
-4.01889
-3.26413
-2.91252
27.8629
-2.93693
-2.92903
-2.92565
-2.93046
-2.94216
-3.03539
-3.47488
-4.54417
-6.00668
-7.32019
-8.18294
-8.22913
-7.38931
-6.19791
-5.17621
-5.22414
-3.61092
-3.07873
24.2476
-3.16134
-3.16369
-3.17358
-3.18853
-3.20382
-3.29509
-3.71442
-4.77029
-6.29853
-7.81657
-9.0126
-9.28748
-8.43678
-7.15086
-5.99061
-6.00048
-3.33661
-0.0669323
14.4914
-3.3894
-3.40634
-3.43665
-3.47694
-3.5213
-3.63777
-4.05469
-5.08607
-6.62826
-8.23046
-9.6668
-10.2081
-9.42124
-7.94275
-6.62273
-6.49821
-3.41956
2.30389
8.3764
-3.61842
-3.65171
-3.70613
-3.78246
-3.87705
-4.04038
-4.45798
-5.43319
-6.94124
-8.50514
-10.0084
-10.7504
-10.113
-8.51644
-7.12452
-6.63887
-4.61364
0.298661
4.05033
-3.84557
-3.89437
-3.97231
-4.08758
-4.24175
-4.46169
-4.87456
-5.76407
-7.19655
-8.69252
-10.1072
-10.9423
-10.4326
-8.86929
-7.42464
-6.39275
-5.93597
-2.65052
0.573078
-4.06851
-4.12987
-4.22643
-4.37393
-4.58109
-4.85406
-5.25789
-6.04505
-7.35661
-8.80612
-10.0813
-10.8708
-10.396
-9.05287
-7.61793
-6.97727
-7.87587
-5.99207
-2.8722
-4.28575
-4.35559
-4.46322
-4.62895
-4.86903
-5.18084
-5.57883
-6.26484
-7.42111
-8.82412
-9.98491
-10.6232
-10.103
-9.0922
-7.74149
-7.72521
-9.46288
-8.56495
-5.95551
-4.49692
-4.57115
-4.68262
-4.85132
-5.09972
-5.43019
-5.83012
-6.43199
-7.40885
-8.69386
-9.74021
-10.1631
-9.68553
-9.01808
-7.8957
-8.26386
-10.3069
-10.0394
-8.13372
-4.70248
-4.77799
-4.88846
-5.04972
-5.28733
-5.6156
-6.01883
-6.55923
-7.35839
-8.42708
-9.31822
-9.45782
-9.21217
-8.89292
-8.23615
-8.74983
-10.6143
-10.8298
-9.461
-4.90337
-4.97834
-5.0855
-5.23588
-5.45384
-5.76335
-6.15778
-6.64897
-7.29911
-8.10495
-8.83076
-8.77658
-8.79205
-8.76022
-8.74616
-9.21695
-10.6406
-11.2437
-10.033
-5.10082
-5.17451
-5.27782
-5.41885
-5.61753
-5.90041
-6.26908
-6.71358
-7.23961
-7.82984
-8.35891
-8.13254
-8.56056
-8.70206
-9.21272
-9.55716
-10.4409
-11.3003
-10.0597
-5.29549
-5.36787
-5.46784
-5.60259
-5.78736
-6.04532
-6.38064
-6.77716
-7.20371
-7.65509
-7.98056
-7.57852
-8.41256
-8.73729
-9.68966
-9.74621
-10.1492
-10.573
-9.66995
-5.48671
-5.55786
-5.65512
-5.78569
-5.9619
-6.2015
-6.50771
-6.86281
-7.23361
-7.56619
-7.81894
-7.28631
-8.13048
-8.8929
-10.1228
-9.789
-10.2216
-9.2849
-9.13085
-5.67667
-5.74656
-5.84137
-5.9687
-6.13985
-6.36808
-6.65408
-6.97922
-7.31016
-7.56042
-7.84895
-7.32727
-7.9692
-9.47498
-10.5561
-9.42483
-11.0678
-10.5261
-8.92802
-5.87459
-5.94381
-6.03709
-6.16237
-6.33215
-6.55767
-6.83443
-7.14299
-7.4538
-7.69216
-7.90003
-7.37736
-7.69145
-10.1381
-10.6984
-8.95649
-12.225
-16.4107
-8.73893
)
;

boundaryField
{
    leftWall
    {
        type            calculated;
        value           nonuniform List<scalar> 
50
(
1423.03
1246.27
1072.03
900.816
733.553
569.986
410.732
261.025
156.279
86.9072
43.6338
6.55642
-0.0291469
-0.154826
-0.248214
-0.343812
-0.443573
-0.552039
-0.673188
-0.805035
-0.943429
-1.08441
-1.22522
-1.36572
-1.50912
-1.65485
-1.80229
-1.95051
-2.09834
-2.24585
-2.39385
-2.54341
-2.69541
-2.85045
-3.0089
-3.17105
-3.33708
-3.50681
-3.67979
-3.85543
-4.03366
-4.2128
-4.39287
-4.57349
-4.7544
-4.93547
-5.1164
-5.29674
-5.47688
-5.65942
)
;
    }
    rightWall
    {
        type            calculated;
        value           nonuniform List<scalar> 
50
(
416.531
360.393
260.675
170.573
99.5548
45.3329
26.5046
20.5107
20.2606
20.4267
21.1917
20.5558
19.9546
19.1718
16.4862
12.3792
9.76298
9.21105
3.92299
4.42682
5.25221
5.83033
5.9427
5.90123
6.02154
6.71037
7.92427
5.26063
3.57917
3.41467
4.1473
12.4043
18.5213
22.7483
27.8629
24.2476
14.4914
8.3764
4.05033
0.573078
-2.8722
-5.95551
-8.13372
-9.461
-10.033
-10.0597
-9.66995
-9.13085
-8.92802
-8.73893
)
;
    }
    lowerWall
    {
        type            calculated;
        value           nonuniform List<scalar> 
62
(
1512.55
1511.75
1510.44
1508.41
1505.88
1502.9
1499.5
1495.67
1491.63
1487.37
1482.99
1478.56
1474.17
1469.89
1465.78
1461.9
1458.29
1455.03
1452.47
1450.04
1448.51
1447.36
1440.96
1356.46
1168.64
990.264
817.546
632.841
440.44
253.657
58.8081
34.2421
35.4293
36.4044
35.4644
174.923
106.794
52.9286
20.7439
26.0164
35.7831
50.0042
15.7777
212.386
192.427
141.631
64.3459
80.6051
191.311
259.043
175.042
129.605
167.51
206.056
257.946
311.761
355.494
363.707
330.051
353.908
420.154
453.197
)
;
    }
    atmosphere
    {
        type            calculated;
        value           nonuniform List<scalar> 
46
(
-5.75317
-5.75575
-5.75604
-5.75709
-5.75828
-5.75969
-5.76133
-5.7632
-5.76533
-5.76773
-5.77044
-5.77349
-5.77692
-5.78079
-5.78516
-5.79011
-5.79573
-5.80211
-5.80939
-5.81771
-5.82725
-5.83822
-5.85086
-5.86659
-5.8865
-5.91019
-5.93846
-5.98161
-6.05087
-6.14374
-6.26799
-6.43855
-6.66738
-6.94426
-7.24988
-7.56282
-7.81715
-7.95248
-7.08866
-7.19238
-11.4621
-11.0503
-7.68498
-12.4295
-23.0508
-7.55303
)
;
    }
    defaultFaces
    {
        type            empty;
    }
}


// ************************************************************************* //
