/*--------------------------------*- C++ -*----------------------------------*\
| =========                 |                                                 |
| \\      /  F ield         | OpenFOAM: The Open Source CFD Toolbox           |
|  \\    /   O peration     | Version:  2206                                  |
|   \\  /    A nd           | Website:  www.openfoam.com                      |
|    \\/     M anipulation  |                                                 |
\*---------------------------------------------------------------------------*/
FoamFile
{
    version     2.0;
    format      ascii;
    arch        "LSB;label=32;scalar=64";
    class       volScalarField;
    location    "0.2";
    object      p;
}
// * * * * * * * * * * * * * * * * * * * * * * * * * * * * * * * * * * * * * //

dimensions      [1 -1 -2 0 0 0 0];

internalField   nonuniform List<scalar> 
2268
(
1999.52
2000.95
2002.07
2003.86
2006.19
2009.23
2013.05
2017.68
2023.13
2029.43
2036.59
2044.6
2053.36
2062.65
2072.25
2081.87
2091.16
2099.73
2107.16
2112.96
2117.58
2118.49
2118.04
1816.01
1818.02
1819.22
1821.04
1823.42
1826.52
1830.41
1835.13
1840.69
1847.11
1854.4
1862.55
1871.6
1881.34
1891.65
1902.33
1913.08
1923.52
1933.21
1941.49
1948.44
1952.05
1957.77
1628.93
1630.77
1632.29
1634.22
1636.7
1639.89
1643.89
1648.77
1654.6
1661.41
1669.26
1678.14
1688.02
1699.04
1710.82
1723.2
1735.91
1748.62
1760.93
1772.14
1782.43
1789.66
1799.28
1437.65
1439.43
1441.2
1443.2
1445.69
1448.87
1452.86
1457.78
1463.73
1470.81
1479.11
1488.71
1499.72
1512.29
1526.27
1541.47
1557.62
1574.29
1590.86
1606.18
1620.08
1630.46
1642.76
1242.57
1244.12
1245.81
1247.63
1249.89
1252.77
1256.41
1261
1266.7
1273.7
1282.17
1292.3
1304.24
1318.11
1334.71
1353.62
1374.59
1397.12
1420.32
1442.4
1462.39
1477.86
1494.73
1043.67
1044.81
1045.97
1047.22
1048.79
1050.82
1053.46
1056.94
1061.49
1067.41
1075.02
1084.66
1096.64
1111.17
1128.48
1150.96
1177.91
1208.97
1242.83
1276.43
1307.15
1333.07
1359.48
841.311
841.845
842.043
842.18
842.41
842.74
843.301
844.332
846.116
849.007
853.481
860.119
869.608
882.623
899.399
918.07
946.316
981.479
1024.84
1074.58
1127.52
1179.7
1223
636.159
635.972
634.873
633.358
631.501
629.152
626.325
623.151
619.783
616.449
613.549
611.73
612.217
616.959
629.505
654.411
690.848
735.617
784.682
846.626
916.324
990.876
1005.4
1.83744
1.83123
1.81927
1.80239
1.78154
1.75777
1.73211
1.70555
1.67889
1.65286
1.62807
1.60506
1.58423
1.5659
1.55032
1.53766
1.52807
1.52162
1.51839
1.6656
1.65886
1.64597
1.62795
1.60589
1.58092
1.55416
1.52664
1.49911
1.47235
1.44697
1.42348
1.40228
1.38366
1.36786
1.35505
1.34535
1.33885
1.33558
1.50142
1.49353
1.47861
1.45824
1.43369
1.40631
1.37737
1.34775
1.31846
1.29022
1.26366
1.23923
1.21729
1.19812
1.18192
1.16882
1.15892
1.15228
1.14896
1.34653
1.3364
1.31772
1.29343
1.26487
1.2336
1.20113
1.16846
1.13655
1.10615
1.07785
1.05206
1.02908
1.00913
0.992354
0.978844
0.968667
0.961865
0.958456
1.20039
1.1871
1.16319
1.13342
1.09911
1.06226
1.02514
0.988284
0.952851
0.919622
0.889094
0.861594
0.837333
0.816435
0.798971
0.784981
0.774481
0.767481
0.763978
1.07355
1.05405
1.01866
0.98025
0.937599
0.893431
0.848971
0.806425
0.766572
0.729924
0.696792
0.667346
0.641653
0.619723
0.601531
0.58704
0.576211
0.569013
0.565415
0.96055
0.927015
0.879334
0.829491
0.776443
0.722472
0.670284
0.621358
0.576523
0.5361
0.500175
0.468707
0.441573
0.418642
0.399766
0.384821
0.373703
0.366334
0.362659
0.867697
0.825513
0.750175
0.688464
0.616644
0.549819
0.487703
0.431465
0.381273
0.336991
0.298342
0.264993
0.236588
0.212819
0.193407
0.178131
0.166818
0.159339
0.155619
473.593
472.449
470.08
467.09
463.269
458.334
452.212
444.887
436.255
426.161
414.435
400.816
384.855
365.038
338.958
299.689
246.747
197.03
226.932
342.796
462.393
526.064
327.029
356.124
354.216
350.966
346.897
341.668
334.849
326.318
315.942
303.373
287.963
268.828
244.684
213.931
173.615
118.919
48.7914
19.6312
5.66937
5.83254
21.4822
85.5245
181.947
124.602
239.985
237.598
233.564
228.035
221.2
212.231
200.775
186.621
169.291
147.616
120.496
89.1435
53.4245
24.6688
5.93524
-4.06579
-4.15245
-2.78881
-2.47027
-1.83157
2.59869
24.6952
51.8164
123.054
116.744
112.751
106.313
98.4098
88.5513
76.4418
62.4423
47.0029
29.7855
15.3668
4.86433
-3.93383
-5.46735
-5.26234
-4.97403
-4.83438
-4.37661
-3.48534
-3.31112
-3.60763
1.78108
3.60834
29.4194
18.7117
18.0908
16.0608
12.6854
8.80995
4.61811
0.398837
-3.64025
-6.0884
-6.1033
-6.05441
-5.91324
-5.7822
-5.62471
-5.5588
-5.75327
-5.99735
-5.26494
-5.01524
-5.70278
-5.08894
-22.402
-6.18942
-6.44286
-6.52738
-6.55418
-6.56941
-6.58162
-6.58883
-6.5844
-6.55144
-6.43389
-6.35852
-6.28004
-6.1871
-6.08181
-5.98401
-5.98768
-6.31784
-6.74147
-6.43058
-6.4167
-7.00599
-7.63906
-13.4477
-6.73452
-6.6926
-6.67714
-6.68158
-6.68961
-6.69799
-6.70263
-6.69827
-6.67768
-6.63012
-6.57603
-6.5197
-6.46095
-6.40589
-6.37677
-6.40877
-6.64303
-6.93738
-7.08925
-7.20311
-7.52434
-8.1214
-8.96288
-6.8372
-6.81464
-6.81179
-6.81764
-6.82577
-6.83498
-6.84266
-6.84518
-6.83937
-6.82296
-6.80121
-6.77855
-6.76022
-6.76167
-6.79633
-6.87187
-7.03997
-7.26237
-7.4529
-7.46377
-7.59085
-7.95796
-8.30895
-6.95188
-6.94545
-6.9471
-6.95511
-6.96644
-6.98002
-6.99452
-7.00813
-7.01968
-7.02883
-7.03797
-7.05137
-7.07782
-7.1383
-7.22955
-7.33089
-7.50706
-7.68227
-7.7391
-7.74242
-7.78943
-7.95113
-8.12499
-7.07101
-7.07272
-7.07895
-7.09078
-7.10727
-7.12772
-7.15169
-7.17879
-7.2089
-7.24244
-7.28149
-7.33132
-7.40341
-7.52303
-7.66402
-7.80534
-8.05852
-8.24185
-8.20065
-8.10525
-8.13706
-8.22241
-8.45724
-7.19072
-7.19717
-7.20753
-7.22402
-7.24664
-7.2752
-7.30999
-7.35151
-7.4004
-7.45758
-7.52469
-7.60745
-7.71784
-7.88446
-8.0661
-8.27449
-8.62341
-8.82225
-8.70129
-8.5115
-8.51928
-8.55085
-8.70006
-7.30743
-7.31705
-7.33102
-7.35237
-7.38147
-7.41864
-7.46478
-7.52094
-7.58828
-7.66781
-7.7603
-7.86966
-8.00581
-8.19066
-8.39165
-8.62822
-8.97313
-9.1705
-9.06941
-8.88504
-8.8744
-8.85225
-8.8621
-7.41808
-7.42989
-7.44715
-7.47326
-7.50888
-7.55474
-7.61221
-7.68275
-7.76786
-7.86831
-7.98397
-8.11589
-8.2689
-8.44979
-8.6471
-8.84757
-9.10205
-9.35597
-9.30044
-9.16362
-9.14602
-9.11203
-9.27561
-7.51985
-7.53324
-7.55352
-7.58417
-7.62608
-7.68039
-7.74878
-7.83314
-7.93515
-8.05534
-8.19311
-8.34753
-8.51774
-8.70092
-8.88661
-9.04364
-9.14431
-9.2615
-9.41696
-9.47836
-9.44886
-9.32851
-9.51593
-7.60998
-7.62457
-7.64761
-7.6825
-7.73033
-7.79258
-7.87123
-7.96858
-8.08652
-8.22564
-8.38534
-8.56402
-8.75843
-8.96241
-9.16113
-9.33142
-9.46689
-9.55745
-9.66612
-9.86159
-9.90941
-9.6189
-9.16697
-7.68593
-7.70149
-7.727
-7.76579
-7.81904
-7.88846
-7.97648
-8.08576
-8.21855
-8.3759
-8.55763
-8.76292
-8.9902
-9.23447
-9.48369
-9.71583
-9.92627
-10.1331
-10.3872
-10.5897
-10.6267
-10.2679
-9.45903
-7.74561
-7.76193
-7.7896
-7.83179
-7.88973
-7.96537
-8.06153
-8.18136
-8.32758
-8.502
-8.70552
-8.93944
-9.20604
-9.50612
-9.83694
-10.1884
-10.5525
-10.9624
-11.3837
-11.7383
-11.7893
-11.5618
-9.91282
-7.78746
-7.80428
-7.83371
-7.87858
-7.94023
-8.0208
-8.12343
-8.25171
-8.40905
-8.59824
-8.82194
-9.08423
-9.39216
-9.75528
-10.1851
-10.6914
-11.2914
-12.0027
-12.6751
-13.1712
-13.2385
-13.1461
-10.5786
-7.81045
-7.82731
-7.85802
-7.90473
-7.96886
-8.05268
-8.1595
-8.29332
-8.45819
-8.65798
-8.89722
-9.18294
-9.52703
-9.94808
-10.4728
-11.1339
-12.0035
-13.0876
-14.1822
-14.7872
-14.7019
-14.5404
-13.351
-7.81392
-7.83027
-7.86165
-7.90925
-7.97445
-8.05948
-8.16775
-8.30346
-8.47115
-8.67556
-8.92262
-9.2217
-9.58856
-10.0487
-10.6407
-11.3947
-12.4776
-13.8795
-15.394
-16.1465
-15.8757
-15.5893
-15.2545
-7.79748
-7.81319
-7.84445
-7.8918
-7.95642
-8.04041
-8.14705
-8.28056
-8.44563
-8.64741
-8.89246
-9.191
-9.55998
-10.0259
-10.6265
-11.4268
-12.5772
-14.1159
-15.8138
-16.9279
-16.4039
-16.0123
-15.9797
-7.76159
-7.77664
-7.80693
-7.85282
-7.91516
-7.9958
-8.09771
-8.22486
-8.38173
-8.57337
-8.80616
-9.08985
-9.44033
-9.88129
-10.4449
-11.1929
-12.2612
-13.6688
-15.0434
-16.2632
-16.2104
-16.1762
-16.3748
-7.70762
-7.72174
-7.75035
-7.79361
-7.85206
-7.92717
-8.02147
-8.13844
-8.28209
-8.45687
-8.66832
-8.92478
-9.23944
-9.63086
-10.1228
-10.7608
-11.6443
-12.7613
-13.6342
-14.4407
-15.1491
-16.4333
-16.8365
-7.63743
-7.65033
-7.67661
-7.71623
-7.76938
-7.83708
-7.92132
-8.02495
-8.15131
-8.30397
-8.48721
-8.70738
-8.97432
-9.30138
-9.70547
-10.2184
-10.8979
-11.7472
-12.4582
-12.8026
-13.2946
-16.0014
-16.4773
-7.55328
-7.56473
-7.58816
-7.62334
-7.67007
-7.72891
-7.80125
-7.88925
-7.99545
-8.12242
-8.27302
-8.45138
-8.66391
-8.91945
-9.23
-9.61748
-10.1144
-10.7266
-11.3655
-11.8728
-12.6829
-14.5778
-15.3627
-7.45775
-7.46758
-7.48779
-7.51796
-7.55754
-7.6066
-7.66594
-7.73698
-7.82145
-7.92094
-8.03685
-8.17111
-8.32687
-8.50897
-8.72496
-8.98842
-9.31656
-9.71936
-10.241
-10.9028
-11.6124
-12.3393
-12.1823
-7.35352
-7.36164
-7.37841
-7.40325
-7.43532
-7.47425
-7.52024
-7.57404
-7.63657
-7.70848
-7.7899
-7.88074
-7.98124
-8.09247
-8.21702
-8.35963
-8.52328
-8.70899
-8.95841
-9.31788
-9.56756
-9.2602
-8.4593
-7.24326
-7.24963
-7.26289
-7.28232
-7.30687
-7.33582
-7.36883
-7.40602
-7.44761
-7.49342
-7.54256
-7.59333
-7.6437
-7.69153
-7.73474
-7.77065
-7.79179
-7.78421
-7.74372
-7.66119
-7.41275
-6.66332
-5.28109
-7.12947
-7.13414
-7.14394
-7.15809
-7.17541
-7.19492
-7.21588
-7.23785
-7.26046
-7.28291
-7.3035
-7.31952
-7.32749
-7.3232
-7.30136
-7.25458
-7.17095
-7.03107
-6.8085
-6.46536
-5.92692
-5.00067
-3.44052
-7.01443
-7.0175
-7.02401
-7.03318
-7.0438
-7.05473
-7.06493
-7.07358
-7.07985
-7.08248
-7.07929
-7.06702
-7.04151
-6.99771
-6.92908
-6.82644
-6.67704
-6.46282
-6.15755
-5.72925
-5.11985
-4.23589
-3.00436
-6.90006
-6.90167
-6.90518
-6.90984
-6.91448
-6.91789
-6.91888
-6.91635
-6.90923
-6.89601
-6.87427
-6.84057
-6.79062
-6.71946
-6.62077
-6.48595
-6.30368
-6.05971
-5.73468
-5.31494
-4.76704
-4.06979
-3.24626
-6.78793
-6.78827
-6.78913
-6.78986
-6.78939
-6.78651
-6.77994
-6.76848
-6.75094
-6.72577
-6.69062
-6.64216
-6.57633
-6.48864
-6.37383
-6.22509
-6.03405
-5.79187
-5.49045
-5.11379
-4.66227
-4.14434
-3.60651
-6.67921
-6.67849
-6.67713
-6.6746
-6.66997
-6.6621
-6.64971
-6.63155
-6.60641
-6.57288
-6.52889
-6.47151
-6.39715
-6.30196
-6.18188
-6.03214
-5.84741
-5.62276
-5.35464
-5.03877
-4.68147
-4.29966
-3.93136
-6.57474
-6.57316
-6.57004
-6.56495
-6.55713
-6.54557
-6.52906
-6.50637
-6.4763
-6.43762
-6.38867
-6.3271
-6.24997
-6.1542
-6.03678
-5.89471
-5.72509
-5.52581
-5.29639
-5.03829
-4.7593
-4.47507
-4.21116
-6.47503
-6.47282
-6.46837
-6.46141
-6.45133
-6.4373
-6.41826
-6.39302
-6.36047
-6.31949
-6.26883
-6.20678
-6.13115
-6.03964
-5.93016
-5.80095
-5.65082
-5.47947
-5.28821
-5.08032
-4.86312
-4.64862
-4.45312
-6.38026
-6.37762
-6.3723
-6.36411
-6.35264
-6.33723
-6.317
-6.29093
-6.25798
-6.21718
-6.16756
-6.10793
-6.03687
-5.9528
-5.85439
-5.74077
-5.61173
-5.46799
-5.31154
-5.14595
-4.97715
-4.81373
-4.66596
-6.29032
-6.28746
-6.28168
-6.2729
-6.26082
-6.24499
-6.22473
-6.1992
-6.1675
-6.12883
-6.08242
-6.02749
-5.96318
-5.88857
-5.80294
-5.706
-5.59808
-5.48029
-5.35472
-5.22449
-5.09413
-4.96952
-4.85719
-6.20482
-6.20194
-6.1961
-6.18731
-6.17534
-6.15992
-6.14057
-6.11665
-6.08747
-6.05238
-6.0108
-5.96223
-5.90621
-5.84231
-5.77029
-5.69021
-5.60264
-5.50876
-5.41042
-5.31009
-5.21102
-5.11716
-5.03262
-6.12362
-6.12092
-6.11536
-6.10703
-6.09579
-6.08147
-6.06377
-6.04226
-6.01648
-5.98593
-5.95024
-5.90911
-5.86237
-5.80992
-5.75181
-5.68833
-5.62013
-5.54824
-5.47414
-5.39961
-5.32685
-5.25837
-5.19674
-6.04812
-6.04576
-6.04075
-6.03324
-6.02313
-6.01035
-5.99472
-5.97605
-5.95406
-5.92849
-5.89915
-5.86595
-5.8289
-5.78812
-5.74387
-5.69652
-5.64669
-5.5952
-5.54309
-5.49147
-5.44163
-5.39502
-5.35312
-5.97545
-5.97361
-5.96945
-5.96313
-5.95457
-5.94377
-5.9307
-5.91529
-5.8975
-5.8773
-5.8547
-5.82978
-5.80271
-5.77376
-5.74326
-5.71164
-5.67941
-5.64719
-5.61557
-5.58504
-5.55597
-5.52896
-5.50473
-5.88708
-5.88627
-5.88341
-5.8789
-5.87274
-5.865
-5.85572
-5.845
-5.83296
-5.81976
-5.80559
-5.79067
-5.77524
-5.75961
-5.74411
-5.72912
-5.71499
-5.70208
-5.69064
-5.68045
-5.67097
-5.66223
-5.65441
-0.259289
0.500199
0.656232
0.608738
-1.34744
0.172754
0.759681
0.751337
-3.47136
1.0616
0.405067
0.772446
-25.3239
0.159854
0.289286
0.913708
-50.3137
0.133381
0.828984
0.938059
-54.817
0.56125
1.06686
0.83526
-51.398
0.904604
1.49884
0.895956
-45.1377
1.26287
2.04241
1.09043
-38.0324
0.967448
2.02926
1.06683
-32.1028
0.571501
1.452
0.784063
-24.0756
0.760047
1.18802
0.472226
-16.2599
0.671799
0.995789
0.141148
-17.2123
-0.605459
-0.103042
-0.425044
-14.582
-1.95719
-1.54334
-1.23575
-7.95126
-2.17679
-2.29432
-2.00506
-1.99785
-2.013
-2.54301
-2.59989
-5.31358
-2.56924
-3.25824
-3.24347
-8.38606
-4.18008
-4.36217
-4.07138
-5.63803
-5.14637
-5.20069
-4.98537
-3.06199
-5.8288
-5.61819
-5.6171
-6.42486
-7.74845
-5.97402
-5.94222
-14.8867
-9.60607
-6.70207
-5.99769
-12.1039
-3.65294
-5.5032
-5.04321
-7.29409
-4.43445
-3.45879
-3.95189
-8.76535
-1.55628
-4.42842
-4.03776
-7.22447
-1.22414
-2.45279
-3.41576
-3.82556
-1.09622
-1.72205
-2.57794
-1.9489
-0.893426
-1.68546
-2.32136
-1.29088
-1.119
-1.81329
-2.32582
-1.76102
-1.75473
-2.15397
-2.52492
-2.50401
-2.4406
-2.61248
-2.8352
-3.14723
-3.01465
-3.05623
-3.17586
-3.62109
-3.4747
-3.45487
-3.50918
-3.98602
-3.85175
-3.80555
-3.81971
-4.28308
-4.16744
-4.11277
-4.1045
-4.53508
-4.43872
-4.385
-4.36659
-4.75621
-4.67796
-4.62976
-4.60784
-4.95577
-4.89416
-4.85369
-4.83237
-5.14027
-5.09396
-5.06222
-5.04398
-5.31455
-5.28243
-5.25982
-5.24611
-5.48238
-5.46362
-5.45018
-5.44178
-5.6472
-5.64111
-5.63671
-5.63391
0.795876
0.743823
0.65366
0.572846
0.487044
0.409062
0.338761
0.276665
0.222406
0.175369
0.134901
0.10039
0.0712791
0.0471024
0.027471
0.0120941
0.000742362
-0.00674689
-0.0104647
0.820374
0.691723
0.589349
0.487274
0.390398
0.303599
0.22727
0.161067
0.104089
0.0553064
0.0137637
-0.0213778
-0.0508257
-0.0751555
-0.0948319
-0.110198
-0.121517
-0.128973
-0.132671
0.773525
0.646193
0.520339
0.399233
0.289609
0.194008
0.11185
0.0419002
-0.0173898
-0.0675344
-0.109819
-0.145315
-0.17488
-0.19919
-0.218777
-0.234035
-0.245253
-0.252631
-0.256287
0.756043
0.606349
0.448429
0.306433
0.183315
0.0791387
-0.00830393
-0.0813789
-0.142399
-0.193391
-0.236
-0.271513
-0.300934
-0.325024
-0.344373
-0.359414
-0.370454
-0.377705
-0.381296
0.764132
0.562135
0.369669
0.206037
0.0696583
-0.0422527
-0.134015
-0.209302
-0.271273
-0.322473
-0.364901
-0.400037
-0.429014
-0.452662
-0.471611
-0.486316
-0.497095
-0.504172
-0.507673
0.774953
0.508129
0.27939
0.0948171
-0.0534196
-0.171476
-0.266095
-0.342354
-0.404287
-0.454937
-0.496598
-0.530918
-0.559123
-0.582091
-0.600466
-0.614712
-0.625146
-0.631996
-0.63538
0.762682
0.436202
0.17133
-0.0308493
-0.188073
-0.309815
-0.405253
-0.480928
-0.541638
-0.590863
-0.631113
-0.664146
-0.691234
-0.713271
-0.730899
-0.744558
-0.754563
-0.761135
-0.764376
0.725662
0.334607
0.0391872
-0.174757
-0.336379
-0.45835
-0.552056
-0.625262
-0.683404
-0.730242
-0.768397
-0.799659
-0.825278
-0.846134
-0.862846
-0.875795
-0.885288
-0.891535
-0.894608
0.624354
0.189393
-0.123003
-0.340315
-0.500025
-0.617837
-0.706787
-0.775403
-0.829513
-0.872959
-0.908331
-0.937337
-0.961146
-0.980576
-0.996225
-1.00835
-1.01725
-1.02313
-1.02601
0.430297
-0.00840468
-0.319596
-0.529838
-0.679958
-0.788549
-0.869352
-0.93115
-0.979736
-1.01879
-1.05071
-1.07701
-1.09869
-1.11647
-1.13095
-1.14212
-1.15037
-1.15582
-1.15852
0.162034
-0.260852
-0.553378
-0.744182
-0.876137
-0.970102
-1.03925
-1.09202
-1.13366
-1.16738
-1.19525
-1.21846
-1.23777
-1.25375
-1.2668
-1.277
-1.28456
-1.28956
-1.29204
-0.207431
-0.576033
-0.8258
-0.982456
-1.08734
-1.16132
-1.21554
-1.25724
-1.2907
-1.31824
-1.34166
-1.36136
-1.37809
-1.39215
-1.40373
-1.41289
-1.41972
-1.42426
-1.42652
-0.70921
-0.958703
-1.13457
-1.24152
-1.31098
-1.36029
-1.39677
-1.42574
-1.45007
-1.47093
-1.48931
-1.50541
-1.51944
-1.5315
-1.54158
-1.54967
-1.55576
-1.55982
-1.56185
-1.33372
-1.39891
-1.47142
-1.51603
-1.54317
-1.56441
-1.58108
-1.59625
-1.61074
-1.62463
-1.63788
-1.65026
-1.66157
-1.67161
-1.6802
-1.68722
-1.69256
-1.69615
-1.69796
-1.98318
-1.86728
-1.82348
-1.79838
-1.7788
-1.77069
-1.76635
-1.76725
-1.77172
-1.77859
-1.7868
-1.79555
-1.8042
-1.81228
-1.81943
-1.82541
-1.83003
-1.83316
-1.83475
-2.59243
-2.33635
-2.17666
-2.08024
-2.01169
-1.9764
-1.95033
-1.93692
-1.93181
-1.93204
-1.93555
-1.94091
-1.94707
-1.95332
-1.95913
-1.96413
-1.96806
-1.97077
-1.97215
-3.19612
-2.79182
-2.51736
-2.35375
-2.2413
-2.17329
-2.1293
-2.10348
-2.08991
-2.08428
-2.08364
-2.08598
-2.08994
-2.09454
-2.09914
-2.10326
-2.10658
-2.10889
-2.11008
-3.82994
-3.21091
-2.82993
-2.61412
-2.4561
-2.36066
-2.30137
-2.26551
-2.24511
-2.23471
-2.23065
-2.23049
-2.23259
-2.2358
-2.23935
-2.2427
-2.24548
-2.24745
-2.24847
-4.42838
-3.57643
-3.09161
-2.83165
-2.64907
-2.53504
-2.46478
-2.4219
-2.39666
-2.38283
-2.37625
-2.37421
-2.37486
-2.37696
-2.37967
-2.38238
-2.38471
-2.38639
-2.38726
-4.89046
-3.88657
-3.30505
-3.01105
-2.81702
-2.69405
-2.6183
-2.57189
-2.54411
-2.52833
-2.52023
-2.51696
-2.51663
-2.51793
-2.52001
-2.52223
-2.5242
-2.52564
-2.5264
-5.15361
-4.08395
-3.4542
-3.14944
-2.95848
-2.8367
-2.76147
-2.71523
-2.68726
-2.67108
-2.66248
-2.65868
-2.65783
-2.65866
-2.66032
-2.66221
-2.66391
-2.66517
-2.66584
-5.20217
-4.14694
-3.53144
-3.24679
-3.0742
-2.96346
-2.89465
-2.85213
-2.82627
-2.81117
-2.80305
-2.79937
-2.79845
-2.79911
-2.80057
-2.80228
-2.8038
-2.80494
-2.80555
-4.95275
-4.07182
-3.5429
-3.30799
-3.16746
-3.07628
-3.01899
-2.98332
-2.96153
-2.94884
-2.94207
-2.93912
-2.93854
-2.93932
-2.94077
-2.94244
-2.94386
-2.94494
-2.94551
-4.45801
-3.88242
-3.50796
-3.34304
-3.24397
-3.17839
-3.13636
-3.1099
-3.09375
-3.0845
-3.07981
-3.07808
-3.07819
-3.07932
-3.08092
-3.08255
-3.08407
-3.08516
-3.08572
-3.94168
-3.6447
-3.4525
-3.36486
-3.31099
-3.27381
-3.24908
-3.23329
-3.22379
-3.21871
-3.21659
-3.21645
-3.2175
-3.21919
-3.22111
-3.22293
-3.22449
-3.22561
-3.22618
-3.45948
-3.42332
-3.39528
-3.38473
-3.37575
-3.36679
-3.35968
-3.355
-3.35258
-3.35199
-3.35279
-3.35449
-3.35669
-3.35907
-3.36139
-3.36345
-3.36513
-3.3663
-3.36689
-3.02999
-3.25266
-3.35695
-3.41361
-3.44475
-3.46134
-3.47064
-3.47661
-3.48115
-3.48512
-3.48888
-3.49249
-3.4959
-3.49904
-3.50183
-3.50416
-3.50599
-3.50723
-3.50786
-2.82968
-3.17262
-3.35602
-3.46093
-3.52324
-3.56072
-3.58407
-3.59948
-3.61039
-3.61863
-3.62522
-3.63069
-3.63532
-3.63923
-3.64249
-3.64512
-3.64711
-3.64844
-3.64911
-2.81044
-3.18048
-3.39879
-3.53163
-3.61466
-3.66733
-3.70162
-3.72478
-3.74108
-3.75306
-3.76218
-3.76935
-3.7751
-3.77973
-3.78346
-3.78636
-3.78851
-3.78993
-3.79063
-2.92492
-3.26423
-3.48405
-3.62679
-3.72049
-3.78257
-3.82443
-3.85334
-3.87386
-3.88885
-3.90008
-3.90869
-3.91539
-3.92066
-3.92479
-3.92794
-3.93023
-3.93173
-3.93246
-3.124
-3.4051
-3.6055
-3.74462
-3.84062
-3.9069
-3.95306
-3.98569
-4.00915
-4.02634
-4.03916
-4.04887
-4.05634
-4.0621
-4.06654
-4.06989
-4.07229
-4.07385
-4.0746
-3.36678
-3.58405
-3.75481
-3.8817
-3.97381
-4.04004
-4.08765
-4.12207
-4.1472
-4.16574
-4.17958
-4.19004
-4.19801
-4.20412
-4.20877
-4.21224
-4.21471
-4.21629
-4.21706
-3.62608
-3.78528
-3.92376
-4.03402
-4.11824
-4.18123
-4.22792
-4.26246
-4.28807
-4.30714
-4.32145
-4.33227
-4.34049
-4.34675
-4.35149
-4.355
-4.35749
-4.35907
-4.35984
-3.88571
-3.99733
-4.10541
-4.19768
-4.27181
-4.32942
-4.37339
-4.40665
-4.4317
-4.45056
-4.4648
-4.47559
-4.4838
-4.49003
-4.49473
-4.49819
-4.50063
-4.50219
-4.50294
-4.13782
-4.21277
-4.29443
-4.3693
-4.43248
-4.48342
-4.52341
-4.5543
-4.57793
-4.59592
-4.6096
-4.62001
-4.62793
-4.63395
-4.63848
-4.64181
-4.64414
-4.64563
-4.64635
-4.378
-4.42696
-4.48701
-4.54612
-4.59843
-4.64209
-4.67728
-4.70499
-4.72651
-4.74307
-4.75576
-4.76547
-4.77287
-4.77849
-4.78272
-4.78582
-4.788
-4.78938
-4.79004
-4.60697
-4.63766
-4.68066
-4.72609
-4.76814
-4.80439
-4.8343
-4.85828
-4.87717
-4.89185
-4.90318
-4.91189
-4.91855
-4.92362
-4.92742
-4.93022
-4.93217
-4.93341
-4.934
-4.82558
-4.844
-4.87389
-4.90775
-4.94042
-4.96939
-4.99382
-5.01372
-5.02958
-5.04203
-5.0517
-5.05917
-5.0649
-5.06927
-5.07255
-5.07495
-5.07663
-5.07769
-5.07821
-5.03539
-5.04604
-5.06596
-5.09016
-5.11437
-5.13638
-5.15527
-5.17087
-5.18344
-5.19339
-5.20117
-5.20719
-5.21183
-5.21537
-5.21803
-5.21998
-5.22134
-5.2222
-5.22261
-5.23853
-5.2441
-5.25665
-5.27276
-5.28935
-5.30474
-5.31815
-5.32935
-5.33845
-5.3457
-5.35139
-5.35582
-5.35923
-5.36184
-5.3638
-5.36524
-5.36625
-5.36688
-5.36718
-5.43676
-5.43925
-5.44614
-5.45531
-5.46496
-5.47404
-5.48204
-5.48878
-5.49429
-5.4987
-5.50218
-5.5049
-5.50699
-5.5086
-5.5098
-5.51068
-5.5113
-5.51169
-5.51187
-5.63215
-5.63278
-5.63491
-5.63782
-5.64095
-5.64393
-5.64658
-5.64883
-5.65068
-5.65216
-5.65334
-5.65426
-5.65498
-5.65552
-5.65593
-5.65623
-5.65644
-5.65657
-5.65664
)
;

boundaryField
{
    leftWall
    {
        type            calculated;
        value           nonuniform List<scalar> 
50
(
1999.52
1816.01
1628.93
1437.65
1242.57
1043.67
841.311
636.159
473.593
356.124
239.985
123.054
29.4194
-6.18942
-6.73452
-6.8372
-6.95188
-7.07101
-7.19072
-7.30743
-7.41808
-7.51985
-7.60998
-7.68593
-7.74561
-7.78746
-7.81045
-7.81392
-7.79748
-7.76159
-7.70762
-7.63743
-7.55328
-7.45775
-7.35352
-7.24326
-7.12947
-7.01443
-6.90006
-6.78793
-6.67921
-6.57474
-6.47503
-6.38026
-6.29032
-6.20482
-6.12362
-6.04812
-5.97545
-5.88708
)
;
    }
    rightWall
    {
        type            calculated;
        value           nonuniform List<scalar> 
50
(
1.51839
1.33558
1.14896
0.958456
0.763978
0.565415
0.362659
0.155619
-0.0104647
-0.132671
-0.256287
-0.381296
-0.507673
-0.63538
-0.764376
-0.894608
-1.02601
-1.15852
-1.29204
-1.42652
-1.56185
-1.69796
-1.83475
-1.97215
-2.11008
-2.24847
-2.38726
-2.5264
-2.66584
-2.80555
-2.94551
-3.08572
-3.22618
-3.36689
-3.50786
-3.64911
-3.79063
-3.93246
-4.0746
-4.21706
-4.35984
-4.50294
-4.64635
-4.79004
-4.934
-5.07821
-5.22261
-5.36718
-5.51187
-5.65664
)
;
    }
    lowerWall
    {
        type            calculated;
        value           nonuniform List<scalar> 
62
(
2089.04
2090.47
2091.58
2093.38
2095.71
2098.74
2102.57
2107.19
2112.65
2118.95
2126.11
2134.12
2142.87
2152.16
2161.76
2171.38
2180.67
2189.25
2196.68
2202.48
2207.09
2206.68
2192.4
2118.04
1957.77
1799.28
1642.76
1494.73
1359.48
1223
1005.4
17.148
0.551365
0.707385
0.65989
1.83744
1.6656
1.50142
1.34653
1.20039
1.07355
0.96055
0.867697
1.92695
1.92075
1.90879
1.8919
1.87105
1.84728
1.82163
1.79507
1.76841
1.74237
1.71759
1.69458
1.67375
1.65542
1.63983
1.62718
1.61758
1.61114
1.6079
)
;
    }
    atmosphere
    {
        type            calculated;
        value           nonuniform List<scalar> 
46
(
-5.82802
-5.82847
-5.82642
-5.82324
-5.81891
-5.81348
-5.80706
-5.79978
-5.79183
-5.78344
-5.77484
-5.76629
-5.75802
-5.75029
-5.74338
-5.73758
-5.73314
-5.73026
-5.72907
-5.72904
-5.72904
-5.72904
-5.72904
-5.72904
-5.72904
-5.72904
-5.72904
-5.72904
-5.72904
-5.72904
-5.72904
-5.72904
-5.72904
-5.72904
-5.72904
-5.72904
-5.72904
-5.72904
-5.72904
-5.72904
-5.72904
-5.72904
-5.72904
-5.72904
-5.72904
-5.72904
)
;
    }
    defaultFaces
    {
        type            empty;
    }
}


// ************************************************************************* //
