/*--------------------------------*- C++ -*----------------------------------*\
| =========                 |                                                 |
| \\      /  F ield         | OpenFOAM: The Open Source CFD Toolbox           |
|  \\    /   O peration     | Version:  2206                                  |
|   \\  /    A nd           | Website:  www.openfoam.com                      |
|    \\/     M anipulation  |                                                 |
\*---------------------------------------------------------------------------*/
FoamFile
{
    version     2.0;
    format      ascii;
    arch        "LSB;label=32;scalar=64";
    class       surfaceScalarField;
    location    "0.2";
    object      phi;
}
// * * * * * * * * * * * * * * * * * * * * * * * * * * * * * * * * * * * * * //

dimensions      [0 3 -1 0 0 0 0];

oriented        oriented;

internalField   nonuniform List<scalar> 
4432
(
-4.72577e-07
4.72577e-07
4.42741e-06
-4.89998e-06
9.74942e-06
-5.32201e-06
1.39352e-05
-4.18579e-06
1.71639e-05
-3.22864e-06
1.98751e-05
-2.71127e-06
2.22922e-05
-2.4171e-06
2.44408e-05
-2.14857e-06
2.62548e-05
-1.81406e-06
2.76408e-05
-1.386e-06
2.8496e-05
-8.55187e-07
2.87096e-05
-2.13584e-07
2.81758e-05
5.33781e-07
2.67954e-05
1.38046e-06
2.44796e-05
2.31581e-06
2.11942e-05
3.28537e-06
1.70242e-05
4.17004e-06
1.21316e-05
4.89256e-06
6.75124e-06
5.38034e-06
1.39495e-06
5.35628e-06
-3.66636e-06
5.06131e-06
-6.13188e-06
2.46551e-06
-6.13189e-06
4.9379e-08
4.23191e-07
5.03694e-06
-9.88755e-06
1.0323e-05
-1.0608e-05
1.45277e-05
-8.39053e-06
1.78978e-05
-6.59869e-06
2.08443e-05
-5.65785e-06
2.3546e-05
-5.11871e-06
2.6008e-05
-4.61057e-06
2.81733e-05
-3.97938e-06
2.99791e-05
-3.19177e-06
3.13669e-05
-2.24299e-06
3.22731e-05
-1.11981e-06
3.25873e-05
2.196e-07
3.24677e-05
1.50002e-06
3.18503e-05
2.93322e-06
3.06857e-05
4.44995e-06
2.88745e-05
5.98123e-06
2.62985e-05
7.46857e-06
2.27919e-05
8.88698e-06
1.82691e-05
9.87902e-06
1.31767e-05
1.01538e-05
7.29647e-06
8.34573e-06
1.16458e-06
8.60458e-07
-4.37262e-07
6.0568e-06
-1.50839e-05
1.13328e-05
-1.5884e-05
1.56296e-05
-1.26874e-05
1.92934e-05
-1.02625e-05
2.26714e-05
-9.0358e-06
2.58594e-05
-8.30674e-06
2.88177e-05
-7.56892e-06
3.14704e-05
-6.63207e-06
3.37408e-05
-5.46211e-06
3.55559e-05
-4.05812e-06
3.68564e-05
-2.42032e-06
3.76016e-05
-5.2562e-07
3.75817e-05
1.51995e-06
3.6879e-05
3.63597e-06
3.54554e-05
5.87355e-06
3.33058e-05
8.1308e-06
3.04145e-05
1.03598e-05
2.65917e-05
1.27098e-05
2.17262e-05
1.47446e-05
1.64864e-05
1.53935e-05
1.08036e-05
1.40286e-05
1.19682e-05
2.03024e-06
-2.4675e-06
7.481e-06
-2.05346e-05
1.27513e-05
-2.11543e-05
1.72275e-05
-1.71636e-05
2.13437e-05
-1.43786e-05
2.53427e-05
-1.30348e-05
2.92244e-05
-1.21884e-05
3.29137e-05
-1.12582e-05
3.63359e-05
-1.00543e-05
3.94252e-05
-8.55142e-06
4.21127e-05
-6.74563e-06
4.43144e-05
-4.62207e-06
4.59078e-05
-2.11897e-06
4.65712e-05
8.56477e-07
4.63736e-05
3.8336e-06
4.51222e-05
7.12495e-06
4.26575e-05
1.05955e-05
3.88312e-05
1.41862e-05
3.35269e-05
1.80141e-05
2.67961e-05
2.14754e-05
1.94305e-05
2.27591e-05
1.23139e-05
2.11452e-05
2.4282e-05
3.42952e-06
-5.89703e-06
9.18699e-06
-2.62921e-05
1.44466e-05
-2.64139e-05
1.91921e-05
-2.19092e-05
2.39031e-05
-1.90896e-05
2.86766e-05
-1.78083e-05
3.34193e-05
-1.69312e-05
3.80367e-05
-1.58756e-05
4.24641e-05
-1.44817e-05
4.66445e-05
-1.27318e-05
5.05053e-05
-1.06064e-05
5.39525e-05
-8.0693e-06
5.68771e-05
-5.04357e-06
5.90912e-05
-1.35758e-06
6.00332e-05
2.89154e-06
5.97181e-05
7.44005e-06
5.77926e-05
1.25209e-05
5.38224e-05
1.81564e-05
4.74804e-05
2.4356e-05
3.86328e-05
3.0323e-05
2.74492e-05
3.39427e-05
1.5401e-05
3.31934e-05
3.9683e-05
4.916e-06
-1.0813e-05
1.09563e-05
-3.23324e-05
1.61921e-05
-3.16497e-05
2.12841e-05
-2.70012e-05
2.6679e-05
-2.44844e-05
3.23049e-05
-2.34343e-05
3.80078e-05
-2.2634e-05
4.37126e-05
-2.15804e-05
4.93917e-05
-2.01607e-05
5.50156e-05
-1.83557e-05
6.05225e-05
-1.61133e-05
6.58245e-05
-1.33714e-05
7.08218e-05
-1.00408e-05
7.54177e-05
-5.95344e-06
7.89374e-05
-6.28205e-07
8.08555e-05
5.52198e-06
8.08594e-05
1.2517e-05
7.80105e-05
2.10053e-05
7.11722e-05
3.11944e-05
5.9237e-05
4.22582e-05
4.22576e-05
5.0922e-05
2.24374e-05
5.30136e-05
6.21204e-05
6.28199e-06
-1.7095e-05
1.25058e-05
-3.85562e-05
1.77357e-05
-3.68795e-05
2.32268e-05
-3.24923e-05
2.9303e-05
-3.05606e-05
3.57479e-05
-2.98792e-05
4.24065e-05
-2.92926e-05
4.92676e-05
-2.84415e-05
5.63721e-05
-2.72653e-05
6.37518e-05
-2.57354e-05
7.13895e-05
-2.3751e-05
7.92319e-05
-2.12138e-05
8.71477e-05
-1.79566e-05
9.49333e-05
-1.3739e-05
0.000102858
-8.55312e-06
0.00011011
-1.73026e-06
0.000115701
6.9268e-06
0.000117799
1.89064e-05
0.000112254
3.67398e-05
9.7686e-05
5.68262e-05
7.55418e-05
7.30663e-05
4.48347e-05
8.37206e-05
0.000106955
7.41676e-06
-2.45118e-05
1.3694e-05
-4.48334e-05
1.89489e-05
-4.21344e-05
2.48434e-05
-3.83869e-05
3.1508e-05
-3.72252e-05
3.86324e-05
-3.70036e-05
4.61169e-05
-3.6777e-05
5.40416e-05
-3.63662e-05
6.25357e-05
-3.57594e-05
7.17201e-05
-3.49199e-05
8.17006e-05
-3.37315e-05
9.25586e-05
-3.20717e-05
0.000104272
-2.967e-05
0.000116446
-2.5913e-05
0.000129326
-2.14329e-05
0.000143543
-1.59472e-05
0.000160729
-1.0259e-05
0.000177833
1.80199e-06
0.000184374
3.01991e-05
0.000175697
6.55027e-05
0.000146864
0.000101899
9.42646e-05
0.00013632
0.00020122
-1.38856e-06
1.38856e-06
-2.4677e-06
1.07928e-06
-3.3661e-06
8.98481e-07
-4.02373e-06
6.57688e-07
-4.44119e-06
4.17506e-07
-4.64376e-06
2.02544e-07
-4.66609e-06
2.22145e-08
-4.54434e-06
-1.21743e-07
-4.31636e-06
-2.28086e-07
-4.00909e-06
-3.07392e-07
-3.6436e-06
-3.65424e-07
-3.23785e-06
-4.0597e-07
-2.80525e-06
-4.32589e-07
-2.35064e-06
-4.54525e-07
-1.88614e-06
-4.6445e-07
-1.41968e-06
-4.66409e-07
-9.47806e-07
-4.71762e-07
-4.6589e-07
-4.81555e-07
-4.6581e-07
-1.69703e-06
3.0857e-06
-2.91484e-06
2.29726e-06
-3.86484e-06
1.84858e-06
-4.47677e-06
1.26961e-06
-4.79596e-06
7.36687e-07
-4.89399e-06
3.00586e-07
-4.83887e-06
-3.31197e-08
-4.6402e-06
-3.20631e-07
-4.34631e-06
-5.21985e-07
-3.98593e-06
-6.68108e-07
-3.58094e-06
-7.70269e-07
-3.14986e-06
-8.37029e-07
-2.70254e-06
-8.80101e-07
-2.25129e-06
-9.05605e-07
-1.79938e-06
-9.16093e-07
-1.34569e-06
-9.19924e-07
-8.96678e-07
-9.2054e-07
-4.40473e-07
-9.37506e-07
-9.06189e-07
-2.11539e-06
5.20117e-06
-3.39837e-06
3.58036e-06
-4.38756e-06
2.83787e-06
-4.97429e-06
1.85641e-06
-5.25738e-06
1.01971e-06
-5.29972e-06
3.42814e-07
-5.17367e-06
-1.59223e-07
-4.90883e-06
-5.85839e-07
-4.56093e-06
-8.69729e-07
-4.15775e-06
-1.07143e-06
-3.71988e-06
-1.20852e-06
-3.25837e-06
-1.29831e-06
-2.78852e-06
-1.34986e-06
-2.31537e-06
-1.37878e-06
-1.84806e-06
-1.38337e-06
-1.3828e-06
-1.38523e-06
-9.20008e-07
-1.38299e-06
-4.5133e-07
-1.40595e-06
-1.35747e-06
-2.82214e-06
8.0234e-06
-4.27809e-06
5.03641e-06
-5.41964e-06
3.97951e-06
-5.9321e-06
2.36893e-06
-6.07338e-06
1.16093e-06
-5.96521e-06
2.34484e-07
-5.66284e-06
-4.61505e-07
-5.27806e-06
-9.71028e-07
-4.82851e-06
-1.3196e-06
-4.34426e-06
-1.55524e-06
-3.84047e-06
-1.71237e-06
-3.33225e-06
-1.80679e-06
-2.83277e-06
-1.84929e-06
-2.34233e-06
-1.86906e-06
-1.85639e-06
-1.86934e-06
-1.38028e-06
-1.86103e-06
-9.14752e-07
-1.84824e-06
-4.48211e-07
-1.87231e-06
-1.80567e-06
-5.17691e-06
1.32004e-05
-6.40355e-06
6.26313e-06
-7.26423e-06
4.84019e-06
-7.42279e-06
2.52746e-06
-7.23041e-06
9.68377e-07
-6.87534e-06
-1.20825e-07
-6.32506e-06
-1.01181e-06
-5.74569e-06
-1.55014e-06
-5.1521e-06
-1.91377e-06
-4.55749e-06
-2.15021e-06
-3.97315e-06
-2.29646e-06
-3.41607e-06
-2.36385e-06
-2.86635e-06
-2.39922e-06
-2.34291e-06
-2.39238e-06
-1.8458e-06
-2.36632e-06
-1.36837e-06
-2.33832e-06
-9.07758e-07
-2.30864e-06
-4.47149e-07
-2.3327e-06
-2.25283e-06
-7.0706e-06
2.0271e-05
-7.51021e-06
6.70268e-06
-8.93508e-06
6.26495e-06
-9.029e-06
2.62141e-06
-8.59042e-06
5.29773e-07
-7.83696e-06
-8.74356e-07
-7.05702e-06
-1.79233e-06
-6.26138e-06
-2.34592e-06
-5.49118e-06
-2.68368e-06
-4.76946e-06
-2.87223e-06
-4.08545e-06
-2.98087e-06
-3.45555e-06
-2.99376e-06
-2.87264e-06
-2.98202e-06
-2.32562e-06
-2.93934e-06
-1.8172e-06
-2.87487e-06
-1.33965e-06
-2.81575e-06
-8.82613e-07
-2.76537e-06
-4.34188e-07
-2.78097e-06
-2.68721e-06
-2.24112e-05
4.26822e-05
-1.76835e-05
1.97507e-06
-1.53632e-05
3.94466e-06
-1.26945e-05
-4.74468e-08
-1.0923e-05
-1.24202e-06
-9.24758e-06
-2.54955e-06
-7.9208e-06
-3.11895e-06
-6.79943e-06
-3.46778e-06
-5.82792e-06
-3.65534e-06
-4.94387e-06
-3.75611e-06
-4.1658e-06
-3.75905e-06
-3.46012e-06
-3.69943e-06
-2.83235e-06
-3.60984e-06
-2.27236e-06
-3.49925e-06
-1.75572e-06
-3.3917e-06
-1.28375e-06
-3.28753e-06
-8.39537e-07
-3.20928e-06
-4.13829e-07
-3.20686e-06
-3.10106e-06
-2.61109e-05
6.8793e-05
-2.08234e-05
-3.31219e-06
-1.62387e-05
-6.40001e-07
-1.40248e-05
-2.26111e-06
-1.17762e-05
-3.49097e-06
-1.0064e-05
-4.26197e-06
-8.49522e-06
-4.68781e-06
-7.13624e-06
-4.8266e-06
-5.9754e-06
-4.81625e-06
-4.97055e-06
-4.76091e-06
-4.11711e-06
-4.61286e-06
-3.36573e-06
-4.45066e-06
-2.7152e-06
-4.26026e-06
-2.14553e-06
-4.06872e-06
-1.64301e-06
-3.89446e-06
-1.18718e-06
-3.74331e-06
-7.71827e-07
-3.62434e-06
-3.81812e-07
-3.59693e-06
-3.48287e-06
4.73995e-06
-2.92517e-05
8.19619e-06
-4.82897e-05
1.11852e-05
-4.51234e-05
1.47085e-05
-4.19103e-05
1.86903e-05
-4.1207e-05
2.29276e-05
-4.12409e-05
2.73923e-05
-4.12417e-05
3.2152e-05
-4.11259e-05
3.72985e-05
-4.09059e-05
4.29315e-05
-4.05528e-05
4.92298e-05
-4.00299e-05
5.64867e-05
-3.93286e-05
6.51662e-05
-3.83496e-05
7.59177e-05
-3.66644e-05
9.14675e-05
-3.69827e-05
0.000110478
-3.4958e-05
0.000133325
-3.31061e-05
0.000143961
-8.83331e-06
0.00013953
3.46302e-05
0.000130736
7.42968e-05
0.000118844
0.000113791
0.000103963
0.000151201
0.000212701
9.24817e-05
5.04278e-06
-3.42945e-05
8.23258e-06
-5.14795e-05
1.10871e-05
-4.79779e-05
1.4601e-05
-4.54241e-05
1.8508e-05
-4.5114e-05
2.25967e-05
-4.53296e-05
2.68578e-05
-4.55028e-05
3.13547e-05
-4.56228e-05
3.61917e-05
-4.57428e-05
4.1541e-05
-4.59021e-05
4.77554e-05
-4.62442e-05
5.54264e-05
-4.69996e-05
6.52587e-05
-4.81818e-05
7.81036e-05
-4.95094e-05
9.72695e-05
-5.61485e-05
0.0001035
-4.11882e-05
0.000103602
-3.32079e-05
0.000113868
-1.91003e-05
0.000129321
1.91782e-05
0.000127812
7.58056e-05
0.000126813
0.00011479
0.000123233
0.00015478
0.000223628
0.000112306
5.39515e-06
-3.96896e-05
8.00506e-06
-5.40894e-05
1.04573e-05
-5.04302e-05
1.37991e-05
-4.87659e-05
1.7443e-05
-4.87579e-05
2.11989e-05
-4.90854e-05
2.51336e-05
-4.94375e-05
2.93915e-05
-4.98807e-05
3.4238e-05
-5.05894e-05
4.01556e-05
-5.18198e-05
4.76891e-05
-5.37777e-05
5.80507e-05
-5.73612e-05
7.10748e-05
-6.1206e-05
8.37578e-05
-6.21923e-05
9.82304e-05
-7.06212e-05
6.61074e-05
-9.06526e-06
3.19352e-07
3.25802e-05
1.17301e-05
-3.0511e-05
6.75926e-05
-3.66842e-05
0.000100589
4.28089e-05
0.000119373
9.60067e-05
0.000127133
0.00014702
0.000229321
0.00012144
6.6304e-06
-4.63201e-05
7.59477e-06
-5.50538e-05
9.4044e-06
-5.22398e-05
1.27616e-05
-5.21231e-05
1.64636e-05
-5.24599e-05
2.04688e-05
-5.30907e-05
2.50984e-05
-5.40671e-05
3.08995e-05
-5.56818e-05
3.86487e-05
-5.83386e-05
4.86908e-05
-6.18619e-05
6.08202e-05
-6.59071e-05
7.81774e-05
-7.47185e-05
9.2744e-05
-7.57726e-05
9.32004e-05
-6.26486e-05
6.46264e-05
-4.20471e-05
7.29438e-06
4.82667e-05
-9.18816e-06
4.9063e-05
2.27766e-05
-6.24753e-05
6.33029e-05
-7.72103e-05
8.71911e-05
1.89207e-05
9.78288e-05
8.53689e-05
0.000126962
0.000117887
0.000232911
0.000123371
8.86968e-06
-5.51897e-05
8.37571e-06
-5.45598e-05
1.0949e-05
-5.48132e-05
1.59316e-05
-5.71056e-05
2.15674e-05
-5.80958e-05
2.82767e-05
-5.98e-05
3.67926e-05
-6.25832e-05
4.85273e-05
-6.74165e-05
6.66541e-05
-7.64654e-05
8.06979e-05
-7.59058e-05
8.95634e-05
-7.47726e-05
8.80903e-05
-7.32453e-05
8.06895e-05
-6.83717e-05
7.19259e-05
-5.38848e-05
6.10808e-05
-3.12018e-05
5.89842e-05
5.03636e-05
6.50513e-05
4.2996e-05
5.71774e-05
-5.46013e-05
6.6813e-05
-8.68458e-05
8.91288e-05
-3.39519e-06
8.46172e-05
8.98804e-05
0.000126216
7.62881e-05
0.000238451
0.000120676
9.92008e-06
-6.51098e-05
1.56399e-05
-6.02796e-05
2.28032e-05
-6.19764e-05
3.10677e-05
-6.53699e-05
3.9785e-05
-6.68131e-05
4.88888e-05
-6.89038e-05
5.76336e-05
-7.1328e-05
6.52097e-05
-7.49926e-05
6.75491e-05
-7.88047e-05
7.1909e-05
-8.02657e-05
7.69167e-05
-7.97801e-05
8.10821e-05
-7.74107e-05
8.55983e-05
-7.28881e-05
9.20094e-05
-6.02959e-05
0.000102485
-4.16773e-05
0.000144378
8.47086e-06
0.000144365
4.301e-05
9.90745e-05
-9.31137e-06
7.88364e-05
-6.66078e-05
9.66219e-05
-2.11807e-05
9.45414e-05
9.19611e-05
0.000127302
4.35274e-05
0.000249766
0.000115987
9.00095e-07
-6.60098e-05
1.28522e-05
-7.22316e-05
2.27457e-05
-7.18701e-05
3.02364e-05
-7.2861e-05
3.78954e-05
-7.44727e-05
4.57006e-05
-7.67098e-05
5.37093e-05
-7.93372e-05
6.09762e-05
-8.22598e-05
6.72433e-05
-8.50716e-05
7.3745e-05
-8.67671e-05
8.14414e-05
-8.74765e-05
9.15936e-05
-8.75629e-05
0.000105467
-8.67618e-05
0.000123118
-7.79472e-05
0.000140193
-5.87516e-05
0.000180306
-3.16421e-05
0.00020822
1.50963e-05
0.00016473
3.41786e-05
0.000111559
-1.34375e-05
0.000108848
-1.84699e-05
0.000116005
8.4805e-05
0.00012293
3.66023e-05
0.000263721
0.000108975
3.08035e-06
-6.90901e-05
1.34907e-05
-8.26417e-05
2.21027e-05
-8.0482e-05
2.95665e-05
-8.03249e-05
3.69535e-05
-8.18599e-05
4.42965e-05
-8.40528e-05
5.15585e-05
-8.65992e-05
5.86071e-05
-8.93082e-05
6.5518e-05
-9.19823e-05
7.30637e-05
-9.43129e-05
8.27015e-05
-9.71145e-05
9.64462e-05
-0.000101308
0.000115407
-0.000105723
0.000137865
-0.000100405
0.000160039
-8.09257e-05
0.000188423
-6.00258e-05
0.000221082
-1.75632e-05
0.000215469
3.97922e-05
0.000161454
4.05766e-05
0.00013267
1.03141e-05
0.00013267
8.48052e-05
0.000117035
5.22366e-05
0.000280495
0.000100261
5.66747e-06
-7.47576e-05
1.31684e-05
-9.01428e-05
1.99902e-05
-8.73039e-05
2.68182e-05
-8.71531e-05
3.36673e-05
-8.87092e-05
4.04722e-05
-9.08577e-05
4.72648e-05
-9.33916e-05
5.41771e-05
-9.62201e-05
6.1395e-05
-9.92e-05
6.96158e-05
-0.000102534
8.04332e-05
-0.000107932
9.54631e-05
-0.000116338
0.000115211
-0.000125471
0.000137336
-0.000122528
0.000158688
-0.000102278
0.000183656
-8.49934e-05
0.000212388
-4.62962e-05
0.000218363
3.38178e-05
0.000184239
7.4701e-05
0.000148097
4.64558e-05
0.000136157
9.6745e-05
0.000111159
7.72347e-05
0.000300876
9.07777e-05
6.62123e-06
-8.13788e-05
1.23329e-05
-9.58543e-05
1.82237e-05
-9.31947e-05
2.44891e-05
-9.34186e-05
3.08514e-05
-9.50715e-05
3.72432e-05
-9.72494e-05
4.37084e-05
-9.98565e-05
5.03346e-05
-0.000102846
5.72507e-05
-0.000106116
6.50424e-05
-0.000110326
7.48163e-05
-0.000117706
8.7658e-05
-0.00012918
0.000103684
-0.000141497
0.000122689
-0.000141534
0.000141371
-0.00012096
0.000160693
-0.000104315
0.00018171
-6.73133e-05
0.000193497
2.20297e-05
0.000175775
9.24236e-05
0.000147197
7.50346e-05
0.000130867
0.000113075
0.000104564
0.000103537
0.000324907
8.05336e-05
6.73527e-06
-8.81141e-05
1.15014e-05
-0.00010062
1.6826e-05
-9.85193e-05
2.25619e-05
-9.91546e-05
2.83811e-05
-0.000100891
3.42389e-05
-0.000103107
4.01548e-05
-0.000105772
4.61416e-05
-0.000108833
5.22469e-05
-0.000112221
5.87029e-05
-0.000116782
6.57892e-05
-0.000124793
7.413e-05
-0.000137521
8.39514e-05
-0.000151318
9.82518e-05
-0.000155834
0.000114485
-0.000137193
0.000127645
-0.000117476
0.000140352
-8.002e-05
0.000152355
1.00259e-05
0.000148774
9.6005e-05
0.000133871
8.99384e-05
0.000120566
0.00012638
9.4453e-05
0.00012965
0.000349637
6.97224e-05
6.3337e-06
-9.44477e-05
1.05085e-05
-0.000104795
1.53492e-05
-0.00010336
2.05225e-05
-0.000104328
2.57578e-05
-0.000106126
3.10335e-05
-0.000108383
3.6345e-05
-0.000111083
4.16717e-05
-0.000114159
4.69763e-05
-0.000117526
5.20355e-05
-0.000121841
5.63641e-05
-0.000129121
5.98338e-05
-0.00014099
6.31143e-05
-0.000154599
7.04632e-05
-0.000163183
8.36963e-05
-0.000150426
9.46123e-05
-0.000128392
0.000101788
-8.7196e-05
0.00011389
-2.076e-06
0.000120123
8.9772e-05
0.000113912
9.61494e-05
0.000107376
0.000132916
8.34255e-05
0.000153601
0.000373014
6.00487e-05
5.65392e-06
-0.000100102
9.38383e-06
-0.000108525
1.37589e-05
-0.000107735
1.8365e-05
-0.000108934
2.30329e-05
-0.000110794
2.77611e-05
-0.000113111
3.25441e-05
-0.000115866
3.73698e-05
-0.000118985
4.21784e-05
-0.000122335
4.65539e-05
-0.000126217
4.94939e-05
-0.000132062
5.00342e-05
-0.000141531
4.89498e-05
-0.000153515
4.92765e-05
-0.000163509
5.86533e-05
-0.000159803
7.05775e-05
-0.000140316
7.85423e-05
-9.51606e-05
8.9034e-05
-1.25673e-05
0.000106111
7.26954e-05
0.000104139
9.81206e-05
9.91588e-05
0.000137896
7.48116e-05
0.000177948
0.000396204
5.1622e-05
4.88175e-06
-0.000104983
8.20531e-06
-0.000111848
1.20856e-05
-0.000111615
1.61278e-05
-0.000112976
2.02483e-05
-0.000114914
2.44631e-05
-0.000117325
2.87809e-05
-0.000120184
3.32487e-05
-0.000123453
3.78938e-05
-0.00012698
4.23953e-05
-0.000130718
4.57708e-05
-0.000135437
4.6689e-05
-0.000142449
4.51617e-05
-0.000151987
4.34798e-05
-0.000161827
4.91986e-05
-0.000165522
5.7917e-05
-0.000149035
6.43629e-05
-0.000101607
7.43893e-05
-2.25935e-05
9.67019e-05
5.0383e-05
0.000101917
9.29052e-05
9.31263e-05
0.000146687
6.66228e-05
0.000204452
0.000419261
4.35649e-05
4.1025e-06
-0.000109086
6.99409e-06
-0.00011474
1.03307e-05
-0.000114952
1.37903e-05
-0.000116436
1.73464e-05
-0.00011847
2.10341e-05
-0.000121013
2.48955e-05
-0.000124046
2.90118e-05
-0.00012757
3.35002e-05
-0.000131468
3.83776e-05
-0.000135596
4.31079e-05
-0.000140167
4.65452e-05
-0.000145887
4.79599e-05
-0.000153402
4.86462e-05
-0.000162514
5.33678e-05
-0.000170244
7.04993e-05
-0.000166166
9.89608e-05
-0.000130069
0.000115471
-3.91042e-05
0.000114094
5.17606e-05
0.000105533
0.000101466
8.66966e-05
0.000165523
5.70384e-05
0.00023411
0.000439509
3.67904e-05
3.32583e-06
-0.000112412
5.72557e-06
-0.00011714
8.47675e-06
-0.000117703
1.13306e-05
-0.000119289
1.42952e-05
-0.000121434
1.73942e-05
-0.000124112
2.07155e-05
-0.000127367
2.43447e-05
-0.000131199
2.84626e-05
-0.000135587
3.33172e-05
-0.000140451
3.89231e-05
-0.000145773
4.46917e-05
-0.000151655
4.99761e-05
-0.000158686
5.48508e-05
-0.000167389
6.17751e-05
-0.000177168
7.63948e-05
-0.000180786
0.000105087
-0.000158761
0.000142959
-7.69765e-05
0.000144485
5.02343e-05
0.00011939
0.000126562
8.79122e-05
0.000197
4.86775e-05
0.000273345
0.000456318
3.18694e-05
2.55547e-06
-0.000114967
4.41602e-06
-0.000119
6.52717e-06
-0.000119814
8.72015e-06
-0.000121482
1.10141e-05
-0.000123728
1.34718e-05
-0.00012657
1.61578e-05
-0.000130053
1.91745e-05
-0.000134216
2.26733e-05
-0.000139086
2.69117e-05
-0.000144689
3.21644e-05
-0.000151026
3.86539e-05
-0.000158144
4.63044e-05
-0.000166337
5.51903e-05
-0.000176275
6.68269e-05
-0.000188805
8.54277e-05
-0.000199386
0.000113474
-0.000186807
0.000153773
-0.000117275
0.000175059
2.89486e-05
0.000144357
0.000157264
9.95025e-05
0.000241855
4.34914e-05
0.000329355
0.000471026
2.87832e-05
1.78768e-06
-0.000116755
3.07256e-06
-0.000120285
4.52423e-06
-0.000121265
6.00892e-06
-0.000122966
7.56571e-06
-0.000125285
9.25989e-06
-0.000128264
1.11547e-05
-0.000131948
1.33374e-05
-0.000136398
1.5948e-05
-0.000141697
1.92155e-05
-0.000147956
2.34985e-05
-0.000155309
2.92453e-05
-0.000163891
3.67826e-05
-0.000173875
4.69003e-05
-0.000186393
6.11047e-05
-0.000203009
8.26143e-05
-0.000220896
0.000113309
-0.000217502
0.000148299
-0.000152266
0.000178515
-1.26723e-06
0.000158227
0.000177553
0.000105337
0.000294745
3.87763e-05
0.000395916
0.000483312
2.64903e-05
1.01227e-06
-0.000117767
1.67378e-06
-0.000120946
2.39749e-06
-0.000121989
3.14015e-06
-0.000123709
3.92472e-06
-0.00012607
4.7859e-06
-0.000129125
5.77842e-06
-0.00013294
6.9792e-06
-0.000137599
8.50158e-06
-0.000143219
1.0517e-05
-0.000149972
1.33014e-05
-0.000158093
1.72789e-05
-0.000167869
2.31321e-05
-0.000179728
3.15011e-05
-0.000194762
4.39511e-05
-0.000215459
6.36054e-05
-0.00024055
9.30083e-05
-0.000246904
0.000127578
-0.000186836
0.000148036
-2.17247e-05
0.000137877
0.000187711
9.2389e-05
0.000340233
3.43195e-05
0.000453985
0.000492632
2.49994e-05
2.50676e-07
-0.000118018
2.58214e-07
-0.000120953
2.53345e-07
-0.000121984
2.24171e-07
-0.00012368
1.80355e-07
-0.000126027
1.37401e-07
-0.000129082
1.21946e-07
-0.000132925
1.777e-07
-0.000137655
3.75325e-07
-0.000143417
8.22306e-07
-0.000150419
1.68274e-06
-0.000158954
3.21977e-06
-0.000169406
5.85788e-06
-0.000182366
1.03185e-05
-0.000199223
1.76815e-05
-0.000222822
2.88675e-05
-0.000251736
4.77302e-05
-0.000265767
7.16786e-05
-0.000210784
8.5623e-05
-3.56692e-05
8.33012e-05
0.000190033
5.89484e-05
0.000364587
2.99523e-05
0.000482981
0.000498038
2.45469e-05
-4.78632e-07
-0.000117539
-1.15304e-06
-0.000120279
-1.8851e-06
-0.000121252
-2.68816e-06
-0.000122877
-3.57219e-06
-0.000125143
-4.54774e-06
-0.000128107
-5.62306e-06
-0.00013185
-6.80109e-06
-0.000136478
-8.07466e-06
-0.000142143
-9.42521e-06
-0.000149068
-1.08208e-05
-0.000157558
-1.22068e-05
-0.000168021
-1.35025e-05
-0.000181071
-1.46956e-05
-0.000198029
-1.59598e-05
-0.000221558
-1.60118e-05
-0.000251684
-1.18166e-05
-0.000269963
8.04165e-07
-0.000223405
9.01554e-06
-4.38807e-05
1.64554e-05
0.000182593
2.26387e-05
0.000358403
2.5364e-05
0.000480256
0.000498292
2.51093e-05
-1.1704e-06
-0.000116368
-2.5233e-06
-0.000118925
-3.96119e-06
-0.000119814
-5.51632e-06
-0.000121322
-7.22167e-06
-0.000123437
-9.11601e-06
-0.000126213
-1.12437e-05
-0.000129722
-1.36565e-05
-0.000134065
-1.64161e-05
-0.000139383
-1.96033e-05
-0.000145881
-2.33272e-05
-0.000153834
-2.774e-05
-0.000163608
-3.30866e-05
-0.000175724
-3.9927e-05
-0.000191189
-4.94164e-05
-0.000212068
-6.20513e-05
-0.000239049
-7.40619e-05
-0.000257953
-7.45499e-05
-0.000222917
-5.27802e-05
-6.56504e-05
-3.31532e-05
0.000162966
-5.55701e-06
0.000330807
1.95236e-05
0.000455175
0.00049244
2.53763e-05
-1.81694e-06
-0.000114551
-3.81026e-06
-0.000116932
-5.91096e-06
-0.000117713
-8.17077e-06
-0.000119063
-1.06457e-05
-0.000120962
-1.34014e-05
-0.000123457
-1.65151e-05
-0.000126609
-2.00823e-05
-0.000130498
-2.42247e-05
-0.000135241
-2.91063e-05
-0.000140999
-3.49509e-05
-0.000147989
-4.20726e-05
-0.000156486
-5.09502e-05
-0.000166847
-6.24784e-05
-0.000179661
-7.83872e-05
-0.000196159
-0.00010031
-0.000217126
-0.00012485
-0.000233413
-0.000137776
-0.000209991
-0.000109767
-9.36585e-05
-6.23109e-05
0.00011551
-1.87981e-05
0.000287295
1.06633e-05
0.000425714
0.000480054
2.30491e-05
-2.40212e-06
-0.000112148
-4.97498e-06
-0.000114359
-7.67332e-06
-0.000115015
-1.0566e-05
-0.00011617
-1.37281e-05
-0.0001178
-1.72474e-05
-0.000119938
-2.12278e-05
-0.000122628
-2.57973e-05
-0.000125928
-3.11203e-05
-0.000129918
-3.7414e-05
-0.000134706
-4.49711e-05
-0.000140432
-5.41945e-05
-0.000147262
-6.56566e-05
-0.000155385
-8.02807e-05
-0.000165036
-9.97125e-05
-0.000176727
-0.000125831
-0.000191008
-0.000156104
-0.000203139
-0.000175815
-0.000190281
-0.000157044
-0.000112429
-9.41132e-05
5.25797e-05
-3.61591e-05
0.000229341
-2.30294e-06
0.000391858
0.000461795
1.59558e-05
-2.9106e-06
-0.000109238
-5.9845e-06
-0.000111285
-9.19713e-06
-0.000111802
-1.26303e-05
-0.000112737
-1.63727e-05
-0.000114057
-2.05273e-05
-0.000115783
-2.52158e-05
-0.00011794
-3.05852e-05
-0.000120558
-3.68227e-05
-0.000123681
-4.41692e-05
-0.00012736
-5.29414e-05
-0.000131659
-6.35608e-05
-0.000136643
-7.65891e-05
-0.000142356
-9.28166e-05
-0.000148808
-0.000113491
-0.000156053
-0.000140245
-0.000164254
-0.000171876
-0.000171508
-0.00019633
-0.000165827
-0.000189819
-0.00011894
-0.000132453
-4.7857e-06
-6.62616e-05
0.00016315
-2.25416e-05
0.000348137
0.000438192
1.06141e-06
-3.33029e-06
-0.000105908
-6.81419e-06
-0.000107801
-1.04446e-05
-0.000108172
-1.43111e-05
-0.00010887
-1.85107e-05
-0.000109858
-2.31534e-05
-0.00011114
-2.83694e-05
-0.000112723
-3.43122e-05
-0.000114615
-4.11723e-05
-0.000116821
-4.91888e-05
-0.000119343
-5.8669e-05
-0.000122179
-7.00067e-05
-0.000125306
-8.37028e-05
-0.000128661
-0.000100392
-0.000132119
-0.000120946
-0.000135498
-0.000146596
-0.000138605
-0.000177405
-0.000140699
-0.000206043
-0.000137189
-0.000211922
-0.00011306
-0.000175963
-4.07458e-05
-0.000113334
0.000100521
-5.34218e-05
0.000288225
0.00040597
-2.12e-05
-3.65333e-06
-0.000102254
-7.44854e-06
-0.000104006
-1.13926e-05
-0.000104228
-1.55773e-05
-0.000104685
-2.01026e-05
-0.000105333
-2.50791e-05
-0.000106163
-3.06356e-05
-0.000107166
-3.69228e-05
-0.000108328
-4.41189e-05
-0.000109625
-5.24427e-05
-0.000111019
-6.21684e-05
-0.000112453
-7.36347e-05
-0.000113839
-8.72595e-05
-0.000115036
-0.000103543
-0.000115835
-0.000123109
-0.000115932
-0.000146836
-0.000114878
-0.000175508
-0.000112027
-0.000206738
-0.000105959
-0.000228463
-9.13345e-05
-0.000220146
-4.9063e-05
-0.000170778
5.11533e-05
-9.60984e-05
0.000213545
0.000356137
-4.62649e-05
-3.87651e-06
-9.83779e-05
-7.88152e-06
-0.000100001
-1.20322e-05
-0.000100077
-1.64192e-05
-0.000100298
-2.11387e-05
-0.000100613
-2.62971e-05
-0.000101005
-3.20146e-05
-0.000101448
-3.84303e-05
-0.000101913
-4.57019e-05
-0.000102353
-5.40163e-05
-0.000102704
-6.35988e-05
-0.000102871
-7.47178e-05
-0.00010272
-8.76931e-05
-0.000102061
-0.000102896
-0.000100633
-0.000120758
-9.80687e-05
-0.000141813
-9.38233e-05
-0.000166742
-8.70981e-05
-0.000195665
-7.70358e-05
-0.000225239
-6.17603e-05
-0.000240577
-3.37257e-05
-0.000217106
2.76825e-05
-0.000146322
0.000142761
0.000280901
-7.10871e-05
-4.00069e-06
-9.43774e-05
-8.11568e-06
-9.58863e-05
-1.23685e-05
-9.5824e-05
-1.68455e-05
-9.58212e-05
-2.1635e-05
-9.58238e-05
-2.68345e-05
-9.58055e-05
-3.25507e-05
-9.57317e-05
-3.89046e-05
-9.55593e-05
-4.60288e-05
-9.52289e-05
-5.40741e-05
-9.46587e-05
-6.32112e-05
-9.37341e-05
-7.36339e-05
-9.22974e-05
-8.55589e-05
-9.01368e-05
-9.92204e-05
-8.69715e-05
-0.000114867
-8.24222e-05
-0.000132745
-7.5945e-05
-0.000153061
-6.67816e-05
-0.00017607
-5.4027e-05
-0.000201368
-3.64614e-05
-0.000223632
-1.14633e-05
-0.000224631
2.86814e-05
-0.000180878
9.90087e-05
0.000199459
-9.94369e-05
-4.03025e-06
-9.03472e-05
-8.16084e-06
-9.17555e-05
-1.24176e-05
-9.15671e-05
-1.68804e-05
-9.13589e-05
-2.16277e-05
-9.10765e-05
-2.6744e-05
-9.0689e-05
-3.23207e-05
-9.01553e-05
-3.84559e-05
-8.9424e-05
-4.52559e-05
-8.84289e-05
-5.28339e-05
-8.70811e-05
-6.13081e-05
-8.526e-05
-7.08021e-05
-8.2804e-05
-8.1437e-05
-7.95018e-05
-9.33252e-05
-7.50837e-05
-0.000106549
-6.91979e-05
-0.000121123
-6.13716e-05
-0.00013692
-5.09851e-05
-0.000153692
-3.72551e-05
-0.000170746
-1.94069e-05
-0.000186587
4.37772e-06
-0.000193719
3.58131e-05
-0.00017507
8.03597e-05
0.000139555
-0.000115166
-3.97263e-06
-8.63743e-05
-8.03257e-06
-8.76952e-05
-1.22044e-05
-8.73951e-05
-1.65596e-05
-8.70039e-05
-2.11667e-05
-8.64701e-05
-2.6095e-05
-8.57605e-05
-3.14194e-05
-8.48315e-05
-3.72152e-05
-8.36282e-05
-4.35618e-05
-8.20826e-05
-5.0537e-05
-8.01063e-05
-5.8213e-05
-7.75839e-05
-6.66534e-05
-7.43644e-05
-7.59001e-05
-7.02545e-05
-8.59676e-05
-6.50164e-05
-9.68102e-05
-5.8355e-05
-0.000108284
-4.98975e-05
-0.000120083
-3.91869e-05
-0.00013164
-2.56977e-05
-0.000141934
-9.11247e-06
-0.000149658
1.21009e-05
-0.000151316
3.74716e-05
-0.000139185
6.82289e-05
0.000102764
-0.000102395
-3.83736e-06
-8.25367e-05
-7.7505e-06
-8.37819e-05
-1.17596e-05
-8.33859e-05
-1.59272e-05
-8.28366e-05
-2.03109e-05
-8.20872e-05
-2.49664e-05
-8.1105e-05
-2.99511e-05
-7.98469e-05
-3.53199e-05
-7.82589e-05
-4.11272e-05
-7.62753e-05
-4.74196e-05
-7.38138e-05
-5.42326e-05
-7.0771e-05
-6.15818e-05
-6.70159e-05
-6.94517e-05
-6.23846e-05
-7.77855e-05
-5.66822e-05
-8.64587e-05
-4.96816e-05
-9.52382e-05
-4.1118e-05
-0.000103731
-3.06944e-05
-0.00011125
-1.81784e-05
-0.000117202
-3.16083e-06
-0.000119684
1.45829e-05
-0.000116875
3.46622e-05
-0.000105281
5.66342e-05
7.83514e-05
-8.08674e-05
-3.63525e-06
-7.89011e-05
-7.33604e-06
-8.00813e-05
-1.11166e-05
-7.96055e-05
-1.50303e-05
-7.8923e-05
-1.91238e-05
-7.79941e-05
-2.34405e-05
-7.67886e-05
-2.80216e-05
-7.52657e-05
-3.29052e-05
-7.33754e-05
-3.81234e-05
-7.10573e-05
-4.36981e-05
-6.82385e-05
-4.96373e-05
-6.48318e-05
-5.59224e-05
-6.07304e-05
-6.2502e-05
-5.58052e-05
-6.92769e-05
-4.99073e-05
-7.60834e-05
-4.28751e-05
-8.26629e-05
-3.45385e-05
-8.86154e-05
-2.47417e-05
-9.34202e-05
-1.3374e-05
-9.63196e-05
-2.61492e-07
-9.61554e-05
1.44186e-05
-9.171e-05
3.0217e-05
-8.14282e-05
4.63527e-05
6.11867e-05
-6.42632e-05
-3.37727e-06
-7.55239e-05
-6.81067e-06
-7.66479e-05
-1.03083e-05
-7.61076e-05
-1.39154e-05
-7.53161e-05
-1.76674e-05
-7.42421e-05
-2.15973e-05
-7.28588e-05
-2.57322e-05
-7.11298e-05
-3.00965e-05
-6.90111e-05
-3.47047e-05
-6.64492e-05
-3.95603e-05
-6.33826e-05
-4.46521e-05
-5.97408e-05
-4.99411e-05
-5.54411e-05
-5.53566e-05
-5.03896e-05
-6.07821e-05
-4.44815e-05
-6.60461e-05
-3.76112e-05
-7.0899e-05
-2.96857e-05
-7.5003e-05
-2.06372e-05
-7.78942e-05
-1.04822e-05
-7.90145e-05
8.58981e-07
-7.76301e-05
1.30344e-05
-7.30358e-05
2.56229e-05
-6.4604e-05
3.79209e-05
4.88429e-05
-5.22602e-05
-3.07292e-06
-7.24514e-05
-6.19417e-06
-7.35269e-05
-9.36572e-06
-7.29354e-05
-1.26251e-05
-7.2057e-05
-1.59979e-05
-7.08695e-05
-1.95077e-05
-6.93494e-05
-2.31715e-05
-6.74658e-05
-2.70019e-05
-6.51811e-05
-3.10007e-05
-6.24506e-05
-3.51592e-05
-5.9224e-05
-3.94533e-05
-5.54467e-05
-4.38347e-05
-5.10588e-05
-4.82271e-05
-4.5997e-05
-5.25131e-05
-4.0195e-05
-5.65306e-05
-3.35934e-05
-6.00626e-05
-2.61535e-05
-6.28282e-05
-1.78717e-05
-6.45102e-05
-8.80007e-06
-6.46404e-05
9.89026e-07
-6.28187e-05
1.12126e-05
-5.86698e-05
2.14742e-05
-5.19822e-05
3.12337e-05
3.97977e-05
-4.29368e-05
-2.72968e-06
-6.97219e-05
-5.50387e-06
-7.07531e-05
-8.31726e-06
-7.01218e-05
-1.11987e-05
-6.91756e-05
-1.41662e-05
-6.79023e-05
-1.72345e-05
-6.62807e-05
-2.04144e-05
-6.42857e-05
-2.37093e-05
-6.18863e-05
-2.71127e-05
-5.90465e-05
-3.06092e-05
-5.57275e-05
-3.41679e-05
-5.18883e-05
-3.77381e-05
-4.74883e-05
-4.12464e-05
-4.2489e-05
-4.45863e-05
-3.68553e-05
-4.76174e-05
-3.05628e-05
-5.01613e-05
-2.36099e-05
-5.20022e-05
-1.60309e-05
-5.28922e-05
-7.90983e-06
-5.25418e-05
6.38746e-07
-5.07011e-05
9.372e-06
-4.71889e-05
1.79618e-05
-4.19681e-05
2.60128e-05
3.30755e-05
-3.52459e-05
-2.35103e-06
-6.73708e-05
-4.75411e-06
-6.83494e-05
-7.1875e-06
-6.76883e-05
-9.67127e-06
-6.66919e-05
-1.22169e-05
-6.53567e-05
-1.48331e-05
-6.36639e-05
-1.75253e-05
-6.15935e-05
-2.02918e-05