/*--------------------------------*- C++ -*----------------------------------*\
| =========                 |                                                 |
| \\      /  F ield         | OpenFOAM: The Open Source CFD Toolbox           |
|  \\    /   O peration     | Version:  2206                                  |
|   \\  /    A nd           | Website:  www.openfoam.com                      |
|    \\/     M anipulation  |                                                 |
\*---------------------------------------------------------------------------*/
FoamFile
{
    version     2.0;
    format      ascii;
    arch        "LSB;label=32;scalar=64";
    class       volScalarField;
    location    "0.7";
    object      alpha.water;
}
// * * * * * * * * * * * * * * * * * * * * * * * * * * * * * * * * * * * * * //

dimensions      [0 0 0 0 0 0 0];

internalField   nonuniform List<scalar> 
2268
(
1
1
1
1
1
1
1
1
1
1
1
1
1
1
1
1
1
1
0.999999
0.999999
1
1
1
1
1
1
1
1
1
1
1
1
1
1
1
1
1
1
1
1
1
1
1
0.999999
0.999999
1
1
1
1
1
1
1
1
1
1
1
1
1
1
1
1
1
1
1
1
1
1
0.999999
0.999999
1
1
1
1
1
1
1
1
1
1
1
1
1
1
1
1
1
1
1
1
1
1
0.999999
1
1
1
1
1
1
1
1
1
1
1
1
1
1
1
1
1
1
1
1
1
1
0.999999
1
1
1
1
1
1
1
1
1
1
1
1
1
1
1
1
1
1
1
1
1
1
1
1
1
1
1
1
1
1
1
1
1
1
1
1
1
1
1
1
1
1
1
1
1
1
1
1
1
1
0.999997
0.999996
0.999997
0.999999
1
1
1
1
1
1
1
1
1
1
1
1
1
1
1
0.290615
0.290615
0.290597
0.234634
0.098564
0.150856
0.339916
0.472145
0.512092
0.537679
0.692577
0.682843
0.663149
0.663149
0.802741
0.914035
0.944231
0.945815
0.932911
0.290615
0.290597
0.201232
0.0460602
0.0468506
0.0472669
0.0493666
0.39407
0.8277
0.94743
0.946084
0.928806
0.663149
0.780545
0.942909
0.944231
0.946581
0.949105
0.949149
0.29059
0.290215
0.046087
0.0460602
0.0460602
0.0475773
0.298006
0.790719
0.948303
0.951636
0.952952
0.954139
0.892794
0.779042
0.939803
0.942909
0.887795
0.830932
0.950885
0.290208
0.275216
0.0465885
0.0460602
0.0465885
0.295335
0.799421
0.875925
0.889691
0.935851
0.954139
0.954139
0.954139
0.797893
0.794077
0.835485
0.684171
0.691438
0.950885
0.289389
0.114374
0.0485366
0.0465885
0.269393
0.794223
0.819896
0.812795
0.445171
0.450158
0.839573
0.954139
0.951659
0.946793
0.693107
0.683769
0.682028
0.700303
0.950871
0.159348
0.059047
0.0502985
0.230673
0.818327
0.821507
0.805996
0.320495
0.00376331
0.00320638
0.150048
0.870454
0.949179
0.946203
0.809836
0.682028
0.679493
0.901351
0.950811
0.190975
0.195308
0.404179
0.867684
0.850461
0.833173
0.338288
0.00258412
0.00209855
0.00265246
0.00320279
0.414368
0.915257
0.943226
0.940155
0.855203
0.679493
0.949958
0.950395
0.674117
0.819554
0.89557
0.887994
0.85436
0.326011
0.000629404
0.0013587
0.00209852
0.00209851
0.00403371
0.0647021
0.901718
0.940155
0.935667
0.933318
0.679482
0.875142
0.951002
1
1
1
1
0.999955
0.999935
0.99995
0.999967
0.999983
0.999993
0.999997
0.999999
1
1
1
1
1
1
1
1
0.999999
1
1
1
1
0.981059
0.94761
0.913708
0.917966
0.938524
0.947814
0.953843
0.961812
0.968627
0.974234
0.97794
0.98009
0.981483
0.982621
0.983657
0.98458
0.985354
0.985801
0.986035
0.98495
0.98395
0.363483
0.342079
0.306579
0.272907
0.286169
0.325794
0.338177
0.335029
0.332353
0.332107
0.337631
0.3477
0.354916
0.357927
0.359641
0.362351
0.366153
0.370096
0.372778
0.373275
0.372145
0.362544
0.34077
5.09694e-07
1.98272e-06
2.86452e-05
8.73937e-05
0.00402492
2.50005e-14
0
-2.42338e-14
0
6.51603e-14
0
-9.9776e-14
-4.81025e-12
-3.3022e-11
-1.00488e-10
-1.91951e-10
-2.55514e-10
-2.55518e-10
-1.62139e-11
0
2.61914e-10
1.99851e-09
9.61065e-09
1.2039e-07
6.80071e-08
2.63563e-11
5.52573e-12
2.15131e-12
1.77332e-12
-1.22179e-12
-2.04143e-12
-8.62388e-13
0
-4.3858e-14
-1.57676e-12
-3.21092e-11
-1.31869e-10
-2.71959e-10
-4.55138e-10
-5.68906e-10
-3.5868e-10
1.03398e-25
2.61914e-10
1.99851e-09
9.61065e-09
2.70676e-08
1.52653e-07
1.15549e-08
5.32501e-09
6.07287e-10
8.28439e-11
9.70063e-12
-1.54236e-11
-4.46446e-11
-6.0695e-11
-4.0856e-11
-4.0446e-11
-2.18391e-10
-3.55266e-10
-4.6831e-10
-5.70907e-10
-6.0772e-10
-2.80143e-10
0
7.01656e-10
6.41354e-09
8.82252e-07
5.87185e-06
1.21995e-05
1.25938e-07
3.91822e-09
2.8818e-10
4.91258e-12
1.02649e-11
3.71917e-11
9.81413e-12
-2.93272e-11
-7.48378e-11
-1.39434e-10
-2.23067e-10
-3.22902e-10
-4.22999e-10
-5.00538e-10
-5.0455e-10
-1.35556e-10
0
1.00351e-09
1.38284e-08
4.47395e-06
2.03488e-05
3.12637e-05
3.10094e-05
1.08481e-08
1.50915e-10
2.73294e-11
1.86014e-13
-6.26105e-30
-2.71342e-12
-1.15446e-11
-3.3169e-11
-7.38497e-11
-1.36025e-10
-2.15246e-10
-2.99015e-10
-3.66488e-10
-3.80273e-10
-1.49017e-10
0
8.31204e-10
1.46121e-08
4.5594e-06
3.04658e-05
3.14244e-05
3.14672e-05
3.06112e-05
2.6037e-11
1.66495e-12
5.96211e-13
7.37876e-16
-5.37613e-13
-2.84073e-12
-1.04292e-11
-2.8817e-11
-6.33588e-11
-1.14971e-10
-1.76604e-10
-2.32861e-10
-2.6157e-10
-2.05253e-10
0
1.53391e-10
2.83948e-09
5.98704e-08
1.57541e-05
3.12291e-05
3.14685e-05
2.43879e-05
6.19196e-09
2.69015e-12
4.54983e-13
5.47105e-15
-8.23539e-14
-5.421e-13
-2.56521e-12
-8.91305e-12
-2.36732e-11
-4.99878e-11
-8.65581e-11
-1.25646e-10
-1.54663e-10
-1.60918e-10
-1.24227e-10
-2.58494e-26
5.1392e-11
9.73622e-10
1.57677e-08
4.37877e-06
2.88927e-05
3.11279e-05
5.825e-06
5.67849e-08
6.29291e-13
3.48317e-14
-6.12817e-15
-8.11389e-14
-5.10558e-13
-2.21084e-12
-7.07207e-12
-1.75418e-11
-3.48088e-11
-5.65724e-11
-7.66442e-11
-8.73781e-11
-8.40953e-11
-6.68438e-11
-2.70301e-11
8.14172e-29
9.18103e-11
1.28549e-09
5.01864e-09
5.41908e-06
1.70557e-05
3.40328e-06
1.37742e-06
5.11153e-14
5.66969e-16
-7.2737e-15
-6.65799e-14
-3.90353e-13
-1.58214e-12
-4.76505e-12
-1.11352e-11
-2.0764e-11
-3.1541e-11
-3.96646e-11
-4.16727e-11
-3.65547e-11
-2.42022e-11
0
1.77447e-11
4.71934e-09
1.54397e-08
5.86287e-09
8.27707e-10
2.37753e-09
6.67513e-07
2.84643e-06
2.42813e-15
-9.54015e-17
-5.35347e-15
-4.60807e-14
-2.52107e-13
-9.5985e-13
-2.72408e-12
-5.99054e-12
-1.04688e-11
-1.48195e-11
-1.72515e-11
-1.66752e-11
-1.33535e-11
-7.54887e-12
0
7.18731e-12
3.86832e-09
1.53327e-08
1.13317e-08
7.05573e-10
7.97324e-10
2.32978e-08
3.25373e-07
1.17458e-16
-2.56925e-16
-3.25212e-15
-2.61127e-14
-1.34007e-13
-4.81629e-13
-1.29085e-12
-2.67429e-12
-4.38262e-12
-5.78575e-12
-6.24445e-12
-5.56845e-12
-4.10496e-12
-2.24224e-12
1.18528e-13
1.03577e-11
1.79218e-10
6.66095e-10
6.34775e-10
7.0023e-10
7.90502e-10
8.3715e-10
1.03186e-09
1.78386e-18
-1.40488e-16
-1.57693e-15
-1.1858e-14
-5.74719e-14
-1.9574e-13
-4.96995e-13
-9.72458e-13
-1.49937e-12
-1.85428e-12
-1.86738e-12
-1.54852e-12
-1.05643e-12
-5.22802e-13
3.52863e-14
2.16116e-12
1.3618e-11
5.72017e-11
4.21306e-10
1.17902e-09
1.44446e-09
1.40137e-09
1.07537e-09
-1.31517e-19
-5.7357e-17
-5.91492e-16
-4.20135e-15
-1.93726e-14
-6.28282e-14
-1.51676e-13
-2.81624e-13
-4.11078e-13
-4.80331e-13
-4.56365e-13
-3.5615e-13
-2.26743e-13
-1.00275e-13
8.53928e-15
4.34735e-13
4.40293e-12
4.57378e-11
2.8386e-10
8.82462e-10
1.39669e-09
1.46674e-09
1.46094e-09
-3.11323e-18
-1.75518e-17
-1.65704e-16
-1.1243e-15
-4.97023e-15
-1.54345e-14
-3.56477e-14
-6.32764e-14
-8.82552e-14
-9.85297e-14
-8.93717e-14
-6.61576e-14
-3.90099e-14
-1.45596e-14
2.41352e-15
9.83268e-14
1.12663e-12
1.04983e-11
5.5779e-11
2.36333e-10
6.55247e-10
9.19951e-10
9.15818e-10
-1.36117e-18
-3.86565e-18
-3.31209e-17
-2.17647e-16
-9.32378e-16
-2.79421e-15
-6.22336e-15
-1.06577e-14
-1.43538e-14
-1.54852e-14
-1.35385e-14
-9.49216e-15
-4.95761e-15
-9.2966e-16
2.08444e-15
1.78245e-14
1.79844e-13
1.20327e-12
6.42446e-12
3.48071e-11
1.15146e-10
1.78853e-10
1.84248e-10
-4.00251e-19
-5.89388e-19
-4.49051e-18
-2.91837e-17
-1.22889e-16
-3.591e-16
-7.79055e-16
-1.30091e-15
-1.71061e-15
-1.80247e-15
-1.52921e-15
-1.005e-15
-4.27455e-16
7.33062e-17
7.64017e-16
2.65687e-15
1.85396e-14
1.08346e-13
6.55568e-13
3.47731e-12
9.54708e-12
1.38005e-11
1.51263e-11
-9.23609e-20
-6.26474e-20
-4.11083e-19
-2.71226e-18
-1.14292e-17
-3.29606e-17
-7.0414e-17
-1.15894e-16
-1.5036e-16
-1.56295e-16
-1.29703e-16
-7.91909e-17
-2.19922e-17
3.73562e-17
1.3514e-16
4.40154e-16
1.75372e-15
7.59284e-15
4.41136e-14
2.15795e-13
5.15754e-13
6.9908e-13
7.65247e-13
-1.79203e-20
-5.40409e-21
-3.08216e-20
-2.07576e-19
-8.79169e-19
-2.51378e-18
-5.3132e-18
-8.66058e-18
-1.11376e-17
-1.1471e-17
-9.34947e-18
-5.28774e-18
-5.60702e-19
3.94705e-18
1.76325e-17
7.08833e-17
2.46407e-16
7.71433e-16
2.47345e-15
7.86342e-15
1.62287e-14
2.20546e-14
2.33249e-14
-3.06004e-21
-4.15007e-22
-2.0946e-21
-1.4384e-20
-6.12275e-20
-1.73879e-19
-3.64455e-19
-5.89742e-19
-7.53547e-19
-7.70692e-19
-6.18344e-19
-3.23354e-19
1.27614e-20
2.73029e-19
1.63981e-18
8.06497e-18
3.68098e-17
1.3804e-16
3.26756e-16
5.75426e-16
8.00887e-16
8.91263e-16
8.93278e-16
-4.75095e-22
-2.99226e-23
-1.36135e-22
-9.49986e-22
-4.0571e-21
-1.14502e-20
-2.38297e-20
-3.83312e-20
-4.87317e-20
-4.95584e-20
-3.91972e-20
-1.89864e-20
2.53087e-21
1.74683e-20
1.21977e-19
6.75023e-19
3.7895e-18
1.49383e-17
3.6979e-17
7.01711e-17
1.08946e-16
1.31361e-16
1.35404e-16
-6.86662e-23
-2.08795e-24
-8.7018e-24
-6.14995e-23
-2.63033e-22
-7.37971e-22
-1.52626e-21
-2.44282e-21
-3.09304e-21
-3.13053e-21
-2.4434e-21
-1.09892e-21
7.61838e-23
9.07011e-22
7.02418e-21
4.3572e-20
2.45905e-19
9.65278e-19
2.52256e-18
4.82597e-18
6.84915e-18
7.79181e-18
7.94706e-18
-9.401e-24
-1.43559e-25
-5.55401e-25
-3.96491e-24
-1.69594e-23
-4.73187e-23
-9.73319e-23
-1.5513e-22
-1.95777e-22
-1.97345e-22
-1.52126e-22
-6.36028e-23
3.02737e-24
4.52213e-23
3.49321e-22
2.24155e-21
1.11952e-20
4.1796e-20
1.04963e-19
1.81047e-19
2.22762e-19
2.30651e-19
2.28545e-19
-1.23513e-24
-9.83395e-27
-3.56866e-26
-2.56879e-25
-1.09811e-24
-3.04866e-24
-6.24194e-24
-9.91447e-24
-1.24798e-23
-1.25365e-23
-9.55177e-24
-3.713e-24
2.04052e-25
2.66185e-24
1.85657e-23
1.09805e-22
5.06773e-22
1.68196e-21
3.90504e-21
6.59377e-21
8.29261e-21
8.43624e-21
6.28014e-21
-1.57265e-25
-6.75417e-28
-2.31702e-27
-1.68101e-26
-7.18228e-26
-1.98566e-25
-4.05016e-25
-6.41592e-25
-8.06054e-25
-8.07419e-25
-6.08516e-25
-2.19721e-25
1.45421e-26
1.76029e-25
1.15429e-24
6.41731e-24
2.83296e-23
8.90606e-23
1.99468e-22
3.04372e-22
3.18037e-22
5.5556e-22
2.37301e-21
-1.9554e-26
-4.66377e-29
-1.52139e-28
-1.11415e-27
-4.76207e-27
-1.31222e-26
-2.66866e-26
-4.21932e-26
-5.29422e-26
-5.29147e-26
-3.94801e-26
-1.32178e-26
1.05122e-27
1.22231e-26
7.82874e-26
4.22684e-25
1.79495e-24
5.11761e-24
1.07839e-23
3.62754e-23
1.0843e-22
2.14895e-22
4.88674e-22
-2.38812e-27
-3.23708e-30
-1.00977e-29
-7.49083e-29
-3.20744e-28
-8.81686e-28
-1.78918e-27
-2.82535e-27
-3.54298e-27
-3.53559e-27
-2.61392e-27
-8.09458e-28
7.69366e-29
8.6998e-28
5.49101e-27
2.76865e-26
1.12634e-25
5.40291e-25
1.76561e-24
5.49894e-24
3.50753e-23
3.98581e-22
3.772e-21
-2.87745e-28
-2.25419e-31
-6.76948e-31
-5.11405e-30
-2.19725e-29
-6.02936e-29
-1.22163e-28
-1.92798e-28
-2.41768e-28
-2.41039e-28
-1.76755e-28
-5.05373e-29
5.75755e-30
6.12195e-29
3.54996e-28
2.02574e-27
1.07539e-26
9.14198e-26
1.08554e-24
2.30025e-23
5.20168e-22
1.06474e-20
1.5768e-19
-3.43104e-29
-1.57108e-32
-4.58339e-32
-3.54781e-31
-1.53156e-30
-4.19705e-30
-8.49508e-30
-1.34066e-29
-1.68214e-29
-1.67653e-29
-1.22062e-29
-3.20662e-30
3.47697e-31
3.5258e-30
3.39336e-29
5.21648e-28
1.13421e-26
3.16002e-25
9.15405e-24
2.49812e-22
6.40671e-21
1.62999e-19
3.25784e-18
-4.05607e-30
-1.09392e-33
-3.1355e-33
-2.50145e-32
-1.08583e-31
-2.9723e-31
-6.01279e-31
-9.49394e-31
-1.19249e-30
-1.18882e-30
-8.59715e-31
-1.81644e-31
3.69223e-32
1.50483e-30
2.8909e-29
1.00903e-27
3.57482e-26
1.21178e-24
3.81774e-23
1.11126e-21
3.26433e-20
1.1546e-18
1.86358e-17
-4.75519e-31
-7.60723e-35
-2.16893e-34
-1.79161e-33
-7.82138e-33
-2.1391e-32
-4.32713e-32
-6.83933e-32
-8.60391e-32
-8.58378e-32
-6.12831e-32
-1.35765e-48
3.09222e-32
1.38411e-30
6.04087e-29
2.47313e-27
9.3083e-26
3.2504e-24
1.06061e-22
3.20207e-21
1.13486e-19
4.48521e-18
3.54004e-17
-5.51787e-32
-6.50919e-36
-1.51751e-35
-1.30192e-34
-5.71474e-34
-1.5622e-33
-3.16193e-33
-5.00535e-33
-6.30942e-33
-6.29932e-33
-4.25021e-33
1.41767e-34
4.24111e-32
2.25034e-30
9.69075e-29
3.82682e-27
1.4088e-25
4.85181e-24
1.56646e-22
4.71978e-21
1.62543e-19
5.14477e-18
3.00853e-17
-6.30087e-33
-7.35871e-36
-1.07396e-36
-9.5841e-36
-4.22838e-35
-1.15604e-34
-2.34269e-34
-3.71599e-34
-4.6954e-34
-4.68514e-34
-2.47311e-34
4.59026e-34
2.085e-32
1.07246e-30
4.8873e-29
2.05426e-27
8.06916e-26
2.97643e-24
1.03496e-22
3.40685e-21
1.33566e-19
3.74726e-18
1.41845e-17
-7.02943e-34
-2.10033e-36
-7.80337e-38
-7.13922e-37
-3.16408e-36
-8.6575e-36
-1.75755e-35
-2.79455e-35
-3.5405e-35
-3.521e-35
-6.62852e-36
6.37909e-35
3.74656e-33
1.94992e-31
9.52506e-30
4.46994e-28
1.93614e-26
7.80016e-25
2.94012e-23
1.04017e-21
4.19537e-20
1.17409e-18
3.46972e-18
-7.60623e-35
-4.00205e-37
-6.21214e-39
-5.37481e-38
-2.39197e-37
-6.55417e-37
-1.33345e-36
-2.12584e-36
-2.70096e-36
-2.6728e-36
-5.15779e-43
3.21607e-36
2.73039e-34
1.72914e-32
9.59411e-31
4.76351e-29
2.13152e-27
8.74709e-26
3.31329e-24
1.23034e-22
5.26406e-21
1.62003e-19
5.90466e-19
-7.92476e-36
-6.20467e-38
-5.8406e-40
-4.08644e-39
-1.82537e-38
-5.01112e-38
-1.02192e-37
-1.63361e-37
-2.0816e-37
-2.0512e-37
-5.05685e-45
6.98993e-38
8.54272e-36
4.87313e-34
2.50576e-32
1.23196e-30
8.73642e-29
4.72588e-27
2.16094e-25
8.67312e-24
3.12263e-22
1.16672e-20
7.63947e-20
-7.89424e-37
-8.29345e-39
-6.39818e-41
-3.13482e-40
-1.40541e-39
-3.86616e-39
-7.90228e-39
-1.26651e-38
-1.61843e-38
-1.58967e-38
-1.30506e-54
8.16663e-39
8.47918e-37
4.92151e-35
2.57618e-33
1.23369e-31
5.43452e-30
2.21139e-28
8.3325e-27
3.89837e-25
1.66545e-23
7.9658e-22
8.43486e-21
-7.48031e-38
-9.61498e-40
-7.14705e-42
-2.42757e-41
-1.09135e-40
-3.0072e-40
-6.1585e-40
-9.89358e-40
-1.26768e-39
-1.24282e-39
-3.21134e-59
7.97019e-40
7.75134e-38
4.57343e-36
2.43416e-34
1.18379e-32
5.28656e-31
2.17579e-29
8.27354e-28
3.21342e-26
1.42287e-24
6.85291e-23
8.50475e-22
-6.75096e-39
-9.73461e-41
-7.10753e-43
-1.89637e-42
-8.53633e-42
-2.35459e-41
-4.82929e-41
-7.77457e-41
-9.9879e-41
-9.79933e-41
-1.01153e-56
6.67511e-41
6.43034e-39
3.85178e-37
2.08272e-35
1.02885e-33
4.66307e-32
1.94436e-30
7.47513e-29
3.35139e-27
1.45772e-25
6.43743e-24
8.01815e-23
-5.86066e-40
-8.57216e-42
-6.2323e-44
-1.48885e-43
-6.70454e-43
-1.85032e-42
-3.8e-42
-6.13039e-42
-7.89782e-42
-7.78591e-42
-6.32205e-58
4.64152e-42
4.6896e-40
2.84594e-38
1.56042e-36
7.82489e-35
3.60178e-33
1.52434e-31
5.93765e-30
2.13878e-28
7.17557e-27
2.23402e-25
6.44864e-24
1
0.999649
0.998429
0.996742
0.949814
0.867376
0.815148
0.758486
0.226931
0.105029
0.061086
0.00776958
1.7338e-08
1.89278e-08
1.89278e-08
3.88209e-08
2.96303e-08
1.89278e-08
3.37936e-06
9.50178e-05
1.44058e-05
7.94614e-07
7.18817e-06
0.000152528
3.09598e-05
7.28406e-06
5.34262e-06
2.75989e-05
1.65144e-05
4.99984e-06
2.36652e-09
7.08473e-09
6.19461e-09
9.77924e-09
1.05817e-10
2.64104e-10
9.41537e-08
3.71184e-11
3.41712e-11
5.27729e-11
2.31693e-06
3.41712e-11
3.11032e-11
5.40443e-11
2.87318e-06
5.21072e-07
2.948e-11
2.93965e-11
8.01201e-07
2.98748e-07
2.95677e-11
7.8588e-10
1.01116e-09
4.31754e-09
1.57551e-08
5.19073e-09
9.10955e-10
8.25162e-10
3.70104e-09
2.15424e-09
1.27575e-09
6.58729e-10
2.12262e-10
1.93568e-10
8.51168e-10
6.90854e-10
2.82925e-10
8.17498e-11
2.11229e-10
2.73375e-10
2.19056e-10
9.68926e-11
2.17531e-11
3.61732e-11
5.13644e-11
4.32282e-11
1.01155e-12
1.62833e-12
3.0975e-12
4.65925e-12
2.08154e-14
3.09242e-14
1.09647e-13
2.45079e-13
8.55984e-16
1.25892e-15
6.52083e-15
1.45115e-14
1.21585e-16
8.95193e-17
2.91742e-16
5.59766e-16
7.15922e-18
5.24985e-18
9.7447e-18
1.30551e-17
2.25988e-19
2.29775e-19
3.69707e-19
5.88817e-19
6.30045e-21
2.46437e-20
6.34458e-20
1.43856e-19
4.30119e-21
5.3934e-21
2.76562e-20
9.07088e-19
3.4506e-21
2.45014e-20
1.14602e-18
9.73881e-17
6.48509e-20
2.9739e-18
1.18486e-16
3.50104e-15
3.41713e-18
9.72012e-17
4.92127e-15
2.06226e-13
7.39891e-17
1.49118e-15
7.8451e-14
2.71548e-12
4.26656e-16
9.51332e-15
5.50747e-13
2.05792e-11
8.87664e-16
2.14123e-14
1.09144e-12
5.80176e-11
9.59194e-16
2.10085e-14
1.12993e-12
6.60038e-11
2.01602e-15
1.15641e-13
6.47212e-13
3.37833e-11
7.82818e-16
6.45526e-14
2.07493e-12
7.3436e-11
1.16428e-16
1.06207e-14
8.04598e-13
3.59978e-11
8.45573e-18
8.03994e-16
6.30664e-14
2.74365e-12
6.25948e-19
5.91074e-17
4.65683e-15
2.33695e-13
6.13214e-20
5.83557e-18
4.1529e-16
2.22565e-14
6.17473e-21
5.95781e-19
3.66311e-17
1.91257e-15
2.32259e-22
2.57907e-20
1.61435e-18
8.24074e-17
0.994028
0.982642
0.911577
0.724319
0.270315
0.000370502
0.000563501
0.000629776
0.00135506
0.00405175
0.0146985
0.196574
0.696781
0.911695
0.933571
0.935019
0.797762
0.833532
0.952349
0.62478
0.402938
0.0727521
2.4613e-05
2.63092e-05
7.37429e-05
0.000303983
0.000627127
0.0017094
0.00529831
0.0112625
0.113998
0.36475
0.624098
0.750158
0.943963
0.95141
0.952349
0.952349
6.6513e-06
6.6513e-06
6.6513e-06
7.11129e-06
1.72978e-05
2.30057e-05
0.000122005
0.000613593
0.00375804
0.00421961
0.00314509
0.0388443
0.124675
0.259216
0.339732
0.445325
0.859845
0.95213
0.953195
7.18274e-06
5.64546e-05
7.89865e-05
7.50203e-05
4.10978e-05
1.31133e-05
4.14032e-05
0.000843827
0.00334642
0.00211014
0.000888301
0.00223305
0.0818795
0.3798
0.212071
0.19093
0.429042
0.90513
0.955394
0.000153695
0.000158883
0.000158883
0.000114923
6.79148e-07
3.56784e-06
2.17509e-05
0.000592563
0.00131595
0.00120528
0.000298276
0.000888298
0.00658497
0.443065
0.788115
0.261376
0.259903
0.870689
0.956326
0.000153343
8.65327e-05
6.94457e-07
6.30635e-06
1.25419e-07
6.78472e-07
9.9258e-06
5.48088e-05
0.000122427
0.000328378
0.000207106
0.000291162
0.00125438
0.133679
0.886739
0.901196
0.467329
0.925516
0.956395
5.09113e-05
1.95931e-08
3.69286e-09
1.50237e-08
1.92793e-08
1.25032e-07
8.88557e-07
4.90231e-06
3.3974e-05
3.57505e-05
7.81088e-05
6.50012e-05
0.000397234
0.052727
0.75749
0.956313
0.8323
0.956442
0.956413
1.35475e-08
7.42353e-10
3.28024e-10
1.13168e-09
2.53497e-09
1.85865e-08
1.29787e-07
9.23081e-07
7.86617e-06
1.06761e-05
3.7407e-06
8.67069e-06
9.44232e-05
0.0200835
0.605329
0.956443
0.956446
0.956451
0.956381
4.4308e-10
1.13865e-10
1.25576e-10
1.76952e-10
3.65151e-10
2.14405e-09
1.47644e-08
1.29807e-07
1.38887e-06
2.35766e-06
1.1381e-06
2.16643e-06
4.17497e-05
0.0107454
0.530413
0.956446
0.956452
0.956451
0.956306
7.86654e-11
9.10961e-11
1.13487e-10
1.1224e-10
1.23485e-10
2.58014e-10
1.48001e-09
1.47646e-08
1.77622e-07
4.16287e-07
1.82815e-07
6.95443e-07
1.8823e-05
0.00245461
0.38552
0.956392
0.956456
0.956445
0.956307
6.60067e-11
8.58282e-11
9.09882e-11
8.78777e-11
8.9415e-11
7.59724e-11
1.71388e-10
1.45123e-09
1.57918e-08
5.29823e-08
3.15597e-08
4.36974e-09
2.44888e-06
0.00128389
0.225974
0.956149
0.956456
0.95648
0.956443
3.03133e-11
4.28948e-11
4.49406e-11
4.0316e-11
4.08021e-11
4.45967e-11
3.63147e-11
1.37174e-10
1.05565e-09
7.43845e-09
6.33296e-09
-4.56381e-08
3.18273e-06
0.000689327
0.081747
0.796497
0.956502
0.956519
0.956515
1.03434e-11
1.24758e-11
1.1935e-11
1.10713e-11
1.30045e-11
1.90571e-11
2.29538e-11
2.75501e-11
1.26438e-10
9.73441e-10
1.88155e-09
-2.50812e-08
5.45117e-07
0.000238705
0.00779047
0.377656
0.956148
0.956545
0.956523
5.50176e-12
5.36236e-12
2.43322e-12
2.29069e-12
3.52882e-12
7.17702e-12
1.29348e-11
1.96042e-11
6.72269e-11
1.67102e-10
5.37069e-10
-4.11182e-09
1.6398e-06
3.85946e-05
0.000966353
0.0938153
0.843882
0.95655
0.956537
4.2566e-10
2.22962e-11
7.97384e-13
4.04528e-13
8.8219e-13
2.93628e-12
8.80376e-12
1.67979e-11
4.84255e-11
1.66062e-10
2.11965e-10
5.26649e-10
4.11774e-08
1.20787e-05
3.67167e-05
0.00124206
0.218888
0.956542
0.956519
2.09321e-10
4.09225e-11
2.606e-12
1.52651e-13
2.64478e-13
1.55414e-12
7.84319e-12
1.64191e-11
2.55056e-11
8.70875e-11
6.40372e-11
1.47685e-10
8.11235e-06
1.12509e-05
1.51123e-06
7.82726e-05
0.0526265
0.943965
0.956507
3.03718e-11
1.43283e-11
1.30925e-12
7.04995e-14
1.27722e-13
9.15192e-13
6.7092e-12
1.74399e-11
2.21217e-11
2.96045e-11
3.95284e-11
5.49989e-11
1.8018e-05
1.68061e-05
7.52747e-07
8.33266e-08
0.00998114
0.537224
0.956492
2.16627e-11
2.83021e-12
2.3732e-13
5.91583e-14
8.81603e-14
5.43715e-13
4.92223e-12
1.73054e-11
2.44968e-11
2.49093e-11
2.60618e-11
3.73705e-10
1.80237e-05
1.32694e-05
4.88503e-07
7.53042e-08
0.000133441
0.295264
0.956422
1.68134e-11
3.54163e-12
3.07581e-13
5.80238e-14
7.44845e-14
3.49949e-13
3.0055e-12
1.34616e-11
2.69513e-11
3.36322e-11
2.87457e-11
2.81819e-11
6.47312e-06
1.56555e-06
7.27874e-08
7.41195e-08
7.55074e-08
0.229567
0.956173
4.41084e-12
1.8726e-12
3.20565e-13
5.7238e-14
6.48213e-14
2.52639e-13
1.71258e-12
8.0833e-12
2.91409e-11
6.27522e-11
4.4801e-11
2.72498e-11
2.84542e-11
4.90183e-08
6.46313e-08
7.27874e-08
7.41195e-08
0.19096
0.955346
3.49393e-13
3.28726e-13
1.50777e-13
3.8204e-14
4.7618e-14
1.89705e-13
1.03688e-12
4.74802e-12
2.71537e-11
7.61007e-11
7.21311e-11
2.72046e-11
2.72498e-11
5.53025e-08
5.578e-08
6.59634e-08
1.31996e-07
0.161431
0.949218
1.80025e-14
1.93807e-14
1.63998e-14
9.94575e-15
2.47563e-14
1.3723e-13
6.90558e-13
3.02491e-12
2.01145e-11
7.62069e-11
8.21248e-11
2.72386e-11
2.77116e-08
5.44462e-08
4.4642e-07
1.31996e-07
9.01245e-07
0.144188
0.932704
6.15026e-16
4.97348e-16
5.48683e-16
2.12667e-15
1.6787e-14
1.04863e-13
5.05103e-13
2.09586e-12
1.10696e-11
6.26063e-11
8.25039e-11
3.7572e-11
1.49588e-08
6.54548e-09
2.06771e-05
1.56378e-06
8.98738e-06
0.135471
0.901258
1.1974e-17
4.65909e-17
1.70836e-16
3.6843e-15
2.44063e-14
1.11252e-13
4.24166e-13
1.52184e-12
5.32409e-12
3.4791e-11
7.72996e-11
4.3554e-11
7.43597e-11
7.11011e-08
3.34633e-05
3.66851e-05
7.88178e-05
0.14497
0.48608
3.57611e-18
1.33237e-17
6.30096e-16
9.85876e-15
5.06492e-14
1.54221e-13
3.88759e-13
1.02199e-12
2.6923e-12
1.21917e-11
5.53591e-11
5.65478e-11
8.1762e-11
4.36377e-09
1.5969e-05
3.08744e-05
0.0086379
0.158756
0.0425624
8.94407e-19
6.17444e-17
2.45714e-15
1.82286e-14
4.67982e-14
1.18648e-13
3.30159e-13
6.73634e-13
1.30335e-12
3.62348e-12
2.08708e-11
3.10808e-11
8.72598e-11
7.9162e-09
6.02093e-07
3.151e-05
0.0401159
0.159262
0.00916609
7.89562e-19
-2.37418e-17
-4.51796e-15
5.57634e-12
9.52908e-11
4.58639e-12
1.97266e-12
6.75912e-13
1.53171e-12
4.05909e-12
1.65776e-11
2.21098e-11
-1.31792e-10
2.114e-08
1.543e-06
0.000775441
0.0856289
0.157394
0.00889033
-4.68706e-17
-1.96069e-14
-7.42217e-13
3.1906e-10
4.43878e-09
2.00989e-09
3.93803e-10
1.46621e-12
1.52779e-12
5.43926e-12
1.96709e-11
1.39199e-11
2.30996e-10
4.65185e-08
3.65638e-06
0.00638472
0.1418
0.156077
0.00898869
5.80884e-14
2.97861e-13
-7.45826e-12
1.26008e-08
1.40497e-07
1.17924e-07
2.27122e-08
2.68397e-10
1.84836e-12
4.14696e-12
1.4025e-11
1.40228e-11
6.82884e-11
2.92483e-08
2.90994e-06
0.0127403
0.153447
0.155128
0.00749649
5.65089e-12
1.02736e-10
2.49853e-10
3.42745e-07
2.96564e-06
3.11565e-06
7.54213e-07
2.11613e-08
2.0681e-10
8.64973e-12
1.32225e-11
1.59611e-11
1.76561e-11
4.2289e-09
5.52337e-07
0.0113726
0.152293
0.125869
0.00348833
1.03313e-10
3.28784e-09
5.36336e-08
5.113e-06
4.74691e-05
4.56137e-05
1.32149e-05
6.65112e-07
2.11742e-08
3.13347e-10
2.4657e-11
1.76561e-11
3.33739e-11
1.30155e-08
3.14063e-08
0.00305131
0.122089
0.00722965
0.0011802
9.09534e-10
2.67564e-08
5.10402e-07
7.02512e-06
0.000600913
0.00423793
0.00084433
1.04065e-05
6.47259e-07
2.93459e-08
1.02045e-07
1.04042e-07
1.08792e-08
1.18604e-08
1.74273e-08
0.000823453
0.0408406
0.00152019
0.00059308
2.41954e-09
7.63994e-08
1.54267e-06
2.17005e-05
0.00292034
0.0138328
0.011271
0.00180739
6.81291e-06
5.17493e-07
1.44647e-07
4.37903e-07
3.02402e-08
1.74267e-08
4.97063e-07
2.53249e-05
0.048648
0.00995239
0.000398216
3.10237e-09
1.13401e-07
2.64122e-06
0.000285024
0.00993209
0.0138291
0.0138352
0.0106283
0.000803302
2.25664e-06
1.81817e-07
6.4577e-08
3.55149e-08
4.03008e-08
1.30888e-06
0.031915
0.103421
0.0149379
0.000105739
1.83388e-09
8.38104e-08
2.59072e-06
0.0017439
0.0132556
0.0138318
0.0129134
0.0121343
0.00781644
0.000220951
5.71988e-07
6.79866e-08
5.42063e-08
6.7991e-08
1.62839e-07
0.0896376
0.100206
0.00545371
4.57662e-06
8.39585e-09
4.83352e-07
1.36707e-05
0.00142566
0.00690453
0.00746991
0.00052242
0.000973415
0.00721303
0.00809626
0.00171297
5.71378e-07
6.79899e-08
1.50668e-07
0.0117539
0.102955
0.00534449
0.000127566
4.42105e-06
1.96498e-09
8.50029e-08
1.399e-07
0.000551971
3.86241e-07
5.30555e-08
1.26948e-08
5.32328e-08
1.46863e-05
0.00809626
0.00222531
1.23511e-05
4.11555e-06
3.13781e-05
0.0490712
0.103011
0.00148414
6.93426e-06
3.54539e-06
-2.42133e-11
2.4587e-10
4.85227e-09
4.34007e-07
8.26912e-07
1.13738e-08
4.68289e-09
2.33615e-06
7.75638e-09
0.00806511
0.00608906
9.8011e-05
1.58948e-05
0.00124112
0.0680521
0.0979213
0.0057837
2.75577e-06
6.15417e-07
5.94958e-13
-2.03907e-10
8.70931e-10
4.12691e-08
3.61602e-08
2.85828e-10
1.63507e-11
1.56941e-07
1.77685e-14
0.00483235
0.00602368
0.000176066
8.7009e-05
0.0333977
0.072938
0.00472262
0.000985219
2.46282e-08
4.79783e-11
4.26367e-13
3.75071e-12
3.36132e-11
-3.07927e-10
-4.58389e-12
-2.57967e-13
-3.205e-27
6.76211e-49
3.15544e-30
0.000246976
0.00590623
0.000245889
0.0201172
0.0479248
0.0306813
-1.11319e-10
2.31428e-26
1.21057e-24
-1.13625e-27
9.97006e-14
1.07117e-12
4.25424e-12
-8.96769e-13
-1.34842e-14
-5.63719e-12
-2.33174e-12
-4.7668e-13
-1.09953e-13
0
0.00561887
0.00265673
0.0190774
0.0104623
-1.2002e-11
-5.96886e-12
-2.6591e-12
-8.08509e-15
-6.70617e-18
3.68836e-15
7.25691e-14
6.8646e-14
2.08227e-14
-4.62162e-13
-2.73617e-12
-5.07303e-13
-5.43576e-14
-7.1207e-15
-1.05879e-22
0.0021113
0.0051098
0.00462149
-1.92062e-22
-4.89608e-36
-8.18005e-35
1.60189e-36
2.31701e-24
8.89037e-22
)
;

boundaryField
{
    leftWall
    {
        type            zeroGradient;
    }
    rightWall
    {
        type            zeroGradient;
    }
    lowerWall
    {
        type            zeroGradient;
    }
    atmosphere
    {
        type            inletOutlet;
        inletValue      uniform 0;
        value           nonuniform List<scalar> 
46
(
-5.86066e-40
-8.57216e-42
-6.2323e-44
-1.48885e-43
-6.70454e-43
-1.85032e-42
-3.8e-42
-6.13039e-42
-7.89782e-42
-7.78591e-42
-6.32205e-58
4.64152e-42
4.6896e-40
2.84594e-38
1.56042e-36
7.82489e-35
3.60178e-33
1.52434e-31
5.93765e-30
2.13878e-28
7.17557e-27
2.23402e-25
6.44864e-24
2.32259e-22
2.57907e-20
1.61435e-18
8.24074e-17
3.68836e-15
7.25691e-14
6.8646e-14
0
0
0
0
0
0
0
0.0021113
0.0051098
0.00462149
0
0
0
0
0
0
)
;
    }
    defaultFaces
    {
        type            empty;
    }
}


// ************************************************************************* //
