/*--------------------------------*- C++ -*----------------------------------*\
| =========                 |                                                 |
| \\      /  F ield         | OpenFOAM: The Open Source CFD Toolbox           |
|  \\    /   O peration     | Version:  2206                                  |
|   \\  /    A nd           | Website:  www.openfoam.com                      |
|    \\/     M anipulation  |                                                 |
\*---------------------------------------------------------------------------*/
FoamFile
{
    version     2.0;
    format      ascii;
    arch        "LSB;label=32;scalar=64";
    class       volVectorField;
    location    "0.7";
    object      U;
}
// * * * * * * * * * * * * * * * * * * * * * * * * * * * * * * * * * * * * * //

dimensions      [0 1 -1 0 0 0 0];

internalField   nonuniform List<vector> 
2268
(
(-0.00902918 0.00541429 0)
(-0.0150123 0.00114226 0)
(-0.0114893 -0.00283293 0)
(-0.00253877 -0.00486453 0)
(0.00925502 -0.00543768 0)
(0.0207835 -0.00480471 0)
(0.0303591 -0.00350283 0)
(0.0369351 -0.00202429 0)
(0.0403575 -0.000704292 0)
(0.0411873 0.000337017 0)
(0.0400404 0.00106837 0)
(0.0377383 0.00159721 0)
(0.0347138 0.00212971 0)
(0.0309256 0.00291755 0)
(0.0259238 0.00414344 0)
(0.0190061 0.00581492 0)
(0.00935491 0.00765464 0)
(-0.00332603 0.00908483 0)
(-0.019049 0.00825616 0)
(-0.0357997 0.00181531 0)
(-0.04382 -0.00912727 0)
(-0.0344403 -0.018692 0)
(-0.0137219 -0.0194263 0)
(-0.0112792 0.0168046 0)
(-0.0157535 0.00280515 0)
(-0.0130128 -0.0086965 0)
(-0.00399526 -0.0150217 0)
(0.00800357 -0.0169564 0)
(0.0199502 -0.0151971 0)
(0.0300605 -0.011395 0)
(0.0372603 -0.00698167 0)
(0.0413558 -0.00300361 0)
(0.0428081 1.43844e-05 0)
(0.0426574 0.00198644 0)
(0.0416367 0.00318223 0)
(0.040323 0.0040569 0)
(0.0390709 0.00513193 0)
(0.037973 0.0068793 0)
(0.036721 0.0096112 0)
(0.0345176 0.0133771 0)
(0.0302785 0.0176393 0)
(0.0230715 0.020453 0)
(0.012814 0.0182276 0)
(0.00639466 0.00884479 0)
(-0.00638109 -0.00987256 0)
(-0.00325543 -0.0332366 0)
(-0.0112318 0.0292496 0)
(-0.0171575 0.00520139 0)
(-0.0152919 -0.0139942 0)
(-0.00715189 -0.0251467 0)
(0.00466116 -0.0286798 0)
(0.0172442 -0.0258594 0)
(0.0277963 -0.0195952 0)
(0.0354558 -0.0122953 0)
(0.0400948 -0.00565913 0)
(0.0420731 -0.00067342 0)
(0.042162 0.00246517 0)
(0.0412293 0.0041403 0)
(0.0399511 0.00499065 0)
(0.0387862 0.00570929 0)
(0.0380517 0.00694748 0)
(0.0380856 0.00927785 0)
(0.0392292 0.0130726 0)
(0.0413809 0.0180469 0)
(0.0434573 0.0224745 0)
(0.0424622 0.0225987 0)
(0.0372992 0.014999 0)
(0.0255025 -0.00203366 0)
(0.0123406 -0.0231593 0)
(-0.0115637 0.0426954 0)
(-0.0194837 0.0090546 0)
(-0.020022 -0.0180084 0)
(-0.0158817 -0.0339997 0)
(-0.00470405 -0.0408052 0)
(0.0105317 -0.0376191 0)
(0.0230798 -0.0286563 0)
(0.0316648 -0.0183693 0)
(0.0370555 -0.00908465 0)
(0.0399261 -0.00199154 0)
(0.0409221 0.00256436 0)
(0.0407724 0.0049785 0)
(0.0401452 0.0060451 0)
(0.0395305 0.00664937 0)
(0.0392109 0.00750569 0)
(0.0393413 0.00908651 0)
(0.0401069 0.0116231 0)
(0.041798 0.0151588 0)
(0.0445231 0.0192566 0)
(0.0467278 0.0222455 0)
(0.0453029 0.0217875 0)
(0.0347311 0.014532 0)
(0.0152642 -0.00166511 0)
(-0.0123628 0.0577608 0)
(-0.0234627 0.0157838 0)
(-0.031859 -0.0164834 0)
(-0.0351014 -0.0384175 0)
(-0.0248797 -0.0532162 0)
(-0.00564855 -0.0519574 0)
(0.0124269 -0.0395356 0)
(0.0241625 -0.0255159 0)
(0.0311383 -0.0134792 0)
(0.0353222 -0.0043848 0)
(0.0377208 0.00160711 0)
(0.0389308 0.00484119 0)
(0.0395021 0.00620955 0)
(0.0399276 0.00672964 0)
(0.040513 0.00729066 0)
(0.0413759 0.00848988 0)
(0.0424596 0.0105935 0)
(0.0435723 0.0135834 0)
(0.0445509 0.0173577 0)
(0.0449722 0.0218033 0)
(0.0438701 0.0265246 0)
(0.0357251 0.0280872 0)
(0.0178616 0.0195032 0)
(-0.0132305 0.0754969 0)
(-0.030152 0.02926 0)
(-0.049764 -0.00597567 0)
(-0.0581936 -0.0397401 0)
(-0.0497757 -0.0677637 0)
(-0.0305638 -0.0712663 0)
(-0.00736388 -0.0552921 0)
(0.0103789 -0.0354122 0)
(0.0209743 -0.019634 0)
(0.0275058 -0.00833921 0)
(0.0319015 -0.000939379 0)
(0.0350307 0.00322735 0)
(0.0373853 0.00509077 0)
(0.0393445 0.00573872 0)
(0.041245 0.00618863 0)
(0.043268 0.00722267 0)
(0.0453882 0.00934195 0)
(0.0472939 0.0127642 0)
(0.0483422 0.0174968 0)
(0.0475282 0.0236676 0)
(0.0442478 0.032303 0)
(0.0359331 0.0435743 0)
(0.0175983 0.0487634 0)
(-0.0126703 0.0953621 0)
(-0.0348472 0.0485229 0)
(-0.060172 0.00852233 0)
(-0.0673693 -0.0410806 0)
(-0.062981 -0.0832052 0)
(-0.050774 -0.0941166 0)
(-0.0306296 -0.0779383 0)
(-0.00901867 -0.0512711 0)
(0.00635548 -0.0296354 0)
(0.016372 -0.0150333 0)
(0.0233929 -0.00583796 0)
(0.0288697 -0.000535007 0)
(0.0334564 0.00202488 0)
(0.0374856 0.00299381 0)
(0.0412302 0.00348847 0)
(0.0449065 0.00445282 0)
(0.0485883 0.0066212 0)
(0.0520988 0.0105259 0)
(0.0549377 0.0165869 0)
(0.0558809 0.024789 0)
(0.0538875 0.0361424 0)
(0.0459715 0.0503344 0)
(0.028885 0.0670332 0)
(-0.0108329 0.115828 0)
(-0.0308858 0.0705932 0)
(-0.0481823 0.0232942 0)
(-0.0487356 -0.0394354 0)
(-0.0497506 -0.0902359 0)
(-0.0496491 -0.109572 0)
(-0.0419472 -0.0993883 0)
(-0.0254554 -0.0711259 0)
(-0.00860778 -0.043675 0)
(0.00439595 -0.0244377 0)
(0.0139474 -0.012731 0)
(0.021541 -0.00626507 0)
(0.0281869 -0.00300361 0)
(0.0343255 -0.0015057 0)
(0.0402113 -0.000666767 0)
(0.0460335 0.000473732 0)
(0.0518551 0.00284188 0)
(0.0576522 0.00733248 0)
(0.0628191 0.0151837 0)
(0.0669017 0.0274603 0)
(0.0650615 0.0473119 0)
(0.0623082 0.0774494 0)
(0.0218221 0.130367 0)
(0.163225 -0.0889581 0)
(0.33805 -0.014722 0)
(-0.382707 0.0754952 0)
(-0.946814 0.0428317 0)
(-1.1052 0.021745 0)
(-1.03911 -0.0127274 0)
(-0.745366 -0.0364833 0)
(-0.313193 -0.0511759 0)
(0.0586642 -0.0228505 0)
(0.120631 0.0438625 0)
(0.0218787 0.0726227 0)
(-0.292504 0.0173589 0)
(-0.429798 -0.0515897 0)
(-0.210759 -0.0992413 0)
(0.0357587 -0.0318332 0)
(-0.444498 0.0776271 0)
(-0.850213 0.045703 0)
(-0.678941 -0.0540834 0)
(-0.241401 -0.0902051 0)
(-0.0392372 -0.101058 0)
(0.0375697 0.143949 0)
(-0.813097 0.26088 0)
(-1.00377 0.151038 0)
(-0.599548 -0.015205 0)
(-0.380342 -0.129266 0)
(0.107676 -0.17791 0)
(0.550257 -0.217613 0)
(0.777547 -0.143567 0)
(0.836968 -0.0145838 0)
(0.671569 0.115076 0)
(0.232065 0.145754 0)
(-0.277953 0.0341942 0)
(-0.356242 -0.0713454 0)
(-0.461422 0.0724096 0)
(-0.80576 0.185858 0)
(-0.955105 0.0685099 0)
(-0.639449 -0.162902 0)
(-0.24134 -0.249191 0)
(-0.156489 -0.0417921 0)
(-0.252027 0.261561 0)
(-0.65756 0.378395 0)
(-0.117766 0.104691 0)
(0.316967 -0.155182 0)
(0.554693 -0.24937 0)
(0.815418 -0.285036 0)
(0.999668 -0.283256 0)
(1.0877 -0.164072 0)
(1.08636 0.0419822 0)
(0.989633 0.218931 0)
(0.67921 0.28669 0)
(0.140184 0.18629 0)
(-0.308999 -0.00788993 0)
(-0.574907 0.125267 0)
(-0.811643 0.236171 0)
(-0.849954 0.0486252 0)
(-0.63217 -0.276372 0)
(-0.216905 -0.409424 0)
(-0.206158 0.0241476 0)
(-0.300846 0.308379 0)
(-0.168493 0.318252 0)
(0.597482 -0.0964742 0)
(0.800634 -0.246399 0)
(0.905146 -0.304471 0)
(1.02185 -0.328924 0)
(1.11594 -0.309103 0)
(1.16114 -0.18722 0)
(1.15316 0.0302389 0)
(1.09539 0.272878 0)
(0.914299 0.414161 0)
(0.486491 0.348971 0)
(-0.0554877 0.136155 0)
(-0.46471 0.183477 0)
(-0.658801 0.280707 0)
(-0.714944 0.0647116 0)
(-0.54599 -0.371433 0)
(-0.181591 -0.561803 0)
(-0.134052 0.0831754 0)
(-0.108498 0.239224 0)
(0.41737 0.100918 0)
(0.836192 -0.159274 0)
(0.903317 -0.273299 0)
(0.98035 -0.334047 0)
(1.06808 -0.355904 0)
(1.1167 -0.333153 0)
(1.10011 -0.218199 0)
(1.0925 0.00644392 0)
(1.08096 0.254977 0)
(0.989047 0.475795 0)
(0.698625 0.491098 0)
(0.228107 0.299236 0)
(-0.267921 0.256627 0)
(-0.41964 0.316562 0)
(-0.500338 0.0727237 0)
(-0.380334 -0.433427 0)
(-0.129896 -0.685174 0)
(-0.0525959 0.0793055 0)
(0.204822 0.09536 0)
(0.716287 -0.0612257 0)
(0.818892 -0.190136 0)
(0.909604 -0.304033 0)
(1.00387 -0.364425 0)
(1.05706 -0.376851 0)
(0.988482 -0.323682 0)
(0.77426 -0.157622 0)
(0.62395 0.0584045 0)
(0.828507 0.283557 0)
(0.953356 0.510353 0)
(0.801571 0.592255 0)
(0.448811 0.447076 0)
(-0.032225 0.347998 0)
(-0.172917 0.345931 0)
(-0.236545 0.0956319 0)
(-0.162803 -0.446306 0)
(-0.0657061 -0.763966 0)
(-0.0493135 0.0945424 0)
(0.332724 -0.0276472 0)
(0.606028 -0.123248 0)
(0.791607 -0.237262 0)
(0.940112 -0.345498 0)
(0.998336 -0.387881 0)
(0.92345 -0.360058 0)
(0.646271 -0.243811 0)
(0.213141 -0.069672 0)
(-0.429932 0.233685 0)
(-0.382061 0.295407 0)
(0.620151 0.46492 0)
(0.80755 0.627055 0)
(0.599363 0.558476 0)
(0.212059 0.444249 0)
(0.029265 0.369549 0)
(0.00698263 0.119774 0)
(0.0428927 -0.439165 0)
(0.00595283 -0.792786 0)
(0.235879 -0.0622599 0)
(0.505981 -0.127612 0)
(0.704817 -0.189588 0)
(0.861971 -0.288415 0)
(0.946672 -0.373628 0)
(0.845515 -0.359965 0)
(0.533624 -0.259578 0)
(-0.0905198 -0.0228375 0)
(-1.36454 0.199878 0)
(-1.88418 0.243665 0)
(-1.64836 0.14964 0)
(-0.553525 0.17575 0)
(0.689867 0.618105 0)
(0.756289 0.641671 0)
(0.474435 0.534493 0)
(0.249136 0.403064 0)
(0.214194 0.123112 0)
(0.199328 -0.426612 0)
(0.0760902 -0.772658 0)
(0.00475741 0.133593 0)
(0.0151853 0.0855878 0)
(0.0070249 0.0236444 0)
(0.0194019 -0.0324247 0)
(0.0132671 -0.0737969 0)
(-0.00454955 -0.0953399 0)
(-0.0217798 -0.0992659 0)
(-0.0249906 -0.0843596 0)
(-0.0191562 -0.0610592 0)
(-0.00852448 -0.0402606 0)
(0.00239121 -0.0256242 0)
(0.0125677 -0.0171668 0)
(0.0219748 -0.0129839 0)
(0.0310652 -0.0112695 0)
(0.0400099 -0.0106581 0)
(0.0491616 -0.010079 0)
(0.0588428 -0.00859333 0)
(0.0698351 -0.00539662 0)
(0.0820927 0.000702686 0)
(0.0991007 0.0103022 0)
(0.116665 0.0279363 0)
(0.15253 0.0463271 0)
(0.174647 0.107091 0)
(0.0222854 0.0778035 0)
(0.0519169 0.0845277 0)
(0.0957687 0.0305785 0)
(0.1186 -0.0184167 0)
(0.112283 -0.0360355 0)
(0.0810528 -0.0395613 0)
(0.039147 -0.0507047 0)
(0.0111199 -0.0645549 0)
(-0.00678928 -0.066838 0)
(-0.0107787 -0.0611399 0)
(-0.00466142 -0.052307 0)
(0.00652192 -0.0441027 0)
(0.0179478 -0.0378504 0)
(0.0294828 -0.0342263 0)
(0.0410828 -0.032799 0)
(0.0531123 -0.0327593 0)
(0.0659665 -0.0331591 0)
(0.0801776 -0.0333983 0)
(0.0965217 -0.0330035 0)
(0.115491 -0.0322294 0)
(0.139214 -0.0299502 0)
(0.16713 -0.0325442 0)
(0.207647 -0.0223453 0)
(0.0254407 -0.0253195 0)
(0.101191 -0.0738033 0)
(0.114453 -0.106042 0)
(0.0764223 -0.0787277 0)
(0.0440229 -0.0185008 0)
(0.0441563 0.021534 0)
(0.0625192 0.0235968 0)
(0.0739033 0.00129687 0)
(0.0582667 -0.028217 0)
(0.0319614 -0.0505808 0)
(0.0146096 -0.0609179 0)
(0.00661054 -0.0629331 0)
(0.00907036 -0.062093 0)
(0.0141796 -0.0622217 0)
(0.022185 -0.0635399 0)
(0.0328786 -0.065302 0)
(0.0461235 -0.0673291 0)
(0.0616455 -0.0695381 0)
(0.0793698 -0.0719346 0)
(0.0993653 -0.0749093 0)
(0.122505 -0.0784569 0)
(0.149296 -0.0863307 0)
(0.189277 -0.0973757 0)
(-0.04823 -0.106584 0)
(-0.271545 -0.0286299 0)
(-0.292573 0.107939 0)
(-0.183972 0.126493 0)
(-0.0667178 0.0173921 0)
(0.0522669 -0.134888 0)
(0.115465 -0.111812 0)
(0.144942 -0.0338803 0)
(0.143323 0.0225226 0)
(0.10647 0.0351809 0)
(0.0482263 0.00850863 0)
(-0.025215 -0.0175268 0)
(-0.0681329 -0.0301923 0)
(-0.0911567 -0.0441284 0)
(-0.0945937 -0.0633841 0)
(-0.0904434 -0.0783319 0)
(-0.0811067 -0.0896085 0)
(-0.0692866 -0.09927 0)
(-0.0559774 -0.10876 0)
(-0.0392388 -0.119157 0)
(-0.0195335 -0.129988 0)
(-0.000864559 -0.155599 0)
(0.0123568 -0.202603 0)
(-0.00716691 0.32883 0)
(-0.199698 0.173543 0)
(-0.142452 -0.157872 0)
(-0.137364 -0.405431 0)
(-0.170077 -0.459997 0)
(-0.190929 -0.234732 0)
(-0.185585 -0.084028 0)
(-0.166147 -0.0521902 0)
(-0.138579 0.0206528 0)
(-0.0883777 0.122704 0)
(-0.0734185 0.144227 0)
(-0.0664672 0.115337 0)
(-0.047955 0.047192 0)
(-0.0370009 -0.0225309 0)
(-0.0315949 -0.0622707 0)
(-0.0333641 -0.0837151 0)
(-0.0383201 -0.0976555 0)
(-0.0435787 -0.109098 0)
(-0.0472394 -0.120766 0)
(-0.0496677 -0.136895 0)
(-0.0491912 -0.151253 0)
(-0.0472007 -0.166339 0)
(-0.0436869 -0.166371 0)
(0.0806595 0.395996 0)
(-0.00893539 0.391412 0)
(0.0159473 0.145594 0)
(-0.038199 -0.0669824 0)
(-0.092655 -0.0954881 0)
(-0.118644 -0.136309 0)
(-0.127115 -0.143207 0)
(-0.133194 -0.1174 0)
(-0.135096 -0.0903926 0)
(-0.117861 -0.0544447 0)
(-0.0856724 -0.0241997 0)
(-0.0551005 -0.0352547 0)
(-0.0368144 -0.0528875 0)
(-0.036249 -0.0559351 0)
(-0.0466528 -0.0596404 0)
(-0.0587729 -0.0672983 0)
(-0.0686834 -0.0789524 0)
(-0.0757201 -0.0935638 0)
(-0.0798952 -0.110153 0)
(-0.0797335 -0.129586 0)
(-0.0743149 -0.151874 0)
(-0.0657188 -0.169266 0)
(-0.0581844 -0.179544 0)
(0.0412488 0.192347 0)
(0.0472672 0.332008 0)
(0.0791906 0.0873439 0)
(0.0760561 -0.124133 0)
(0.0440493 -0.17699 0)
(0.011609 -0.139035 0)
(-0.0212604 -0.0911622 0)
(-0.0490053 -0.0611801 0)
(-0.064727 -0.0371958 0)
(-0.0723804 -0.0158877 0)
(-0.0727466 -0.00539104 0)
(-0.0722104 -0.00554546 0)
(-0.0756307 -0.0134243 0)
(-0.080926 -0.0247195 0)
(-0.0866335 -0.0370119 0)
(-0.0927051 -0.0510008 0)
(-0.0994058 -0.0667295 0)
(-0.107004 -0.0839239 0)
(-0.113526 -0.107533 0)
(-0.113799 -0.142851 0)
(-0.108372 -0.175747 0)
(-0.103022 -0.191892 0)
(-0.106818 -0.185471 0)
(-0.0279507 0.149852 0)
(0.0276807 0.186408 0)
(0.0602053 0.0338239 0)
(0.0526589 -0.0409869 0)
(0.0160624 -0.0428502 0)
(-0.0186688 -0.0313563 0)
(-0.0390267 -0.0274862 0)
(-0.0518654 -0.0251186 0)
(-0.060949 -0.021972 0)
(-0.0672181 -0.0180125 0)
(-0.0712963 -0.0148831 0)
(-0.0749741 -0.0139993 0)
(-0.0801855 -0.0149577 0)
(-0.0874201 -0.0181912 0)
(-0.0960168 -0.0249848 0)
(-0.105466 -0.0354854 0)
(-0.116358 -0.0477882 0)
(-0.128874 -0.0640942 0)
(-0.139442 -0.0974412 0)
(-0.144061 -0.145875 0)
(-0.148773 -0.174661 0)
(-0.158698 -0.175362 0)
(-0.179883 -0.15568 0)
(-0.0284061 0.199547 0)
(0.00673925 0.129027 0)
(0.0164881 0.0350613 0)
(0.0123057 -0.00687314 0)
(-0.00172152 -0.0140334 0)
(-0.0161186 -0.0140713 0)
(-0.0281622 -0.0127226 0)
(-0.0393626 -0.00934069 0)
(-0.0495315 -0.00512581 0)
(-0.0585196 -0.0010614 0)
(-0.0666182 0.00211752 0)
(-0.0744361 0.00384795 0)
(-0.082529 0.00375389 0)
(-0.0912389 0.00125203 0)
(-0.100823 -0.00425246 0)
(-0.11177 -0.0119173 0)
(-0.124825 -0.0203535 0)
(-0.139545 -0.0364979 0)
(-0.15414 -0.0755808 0)
(-0.169417 -0.123779 0)
(-0.188721 -0.141351 0)
(-0.211343 -0.130839 0)
(-0.240115 -0.109971 0)
(-0.00839001 0.21806 0)
(0.00353774 0.106555 0)
(0.00748212 0.0258365 0)
(0.00299517 0.0069631 0)
(-0.0065363 0.00997854 0)
(-0.0171286 0.0126116 0)
(-0.0276599 0.0130557 0)
(-0.0376845 0.0135717 0)
(-0.0470265 0.0148272 0)
(-0.0557365 0.0166264 0)
(-0.0640257 0.0185771 0)
(-0.072134 0.0202297 0)
(-0.0802931 0.0210174 0)
(-0.0888086 0.020223 0)
(-0.0981484 0.0174005 0)
(-0.108816 0.0131612 0)
(-0.120868 0.0078907 0)
(-0.134117 -0.00464483 0)
(-0.151285 -0.03591 0)
(-0.174719 -0.075424 0)
(-0.201422 -0.0902086 0)
(-0.228204 -0.0789425 0)
(-0.254816 -0.0643408 0)
(0.000993556 0.211527 0)
(0.00432436 0.0995885 0)
(0.003378 0.0346717 0)
(-0.0041653 0.026664 0)
(-0.0132076 0.030267 0)
(-0.0216933 0.0311158 0)
(-0.0299283 0.0307727 0)
(-0.0381024 0.0308738 0)
(-0.0461474 0.0316541 0)
(-0.0540027 0.0329521 0)
(-0.0616502 0.0345116 0)
(-0.0691159 0.0359962 0)
(-0.0764794 0.0370235 0)
(-0.0839297 0.0372248 0)
(-0.0918206 0.0363255 0)
(-0.100546 0.0342982 0)
(-0.110017 0.0309876 0)
(-0.120146 0.0238814 0)
(-0.134502 0.0069491 0)
(-0.156978 -0.0193166 0)
(-0.182736 -0.0369273 0)
(-0.207964 -0.0333107 0)
(-0.229497 -0.026157 0)
(0.00121966 0.207248 0)
(0.00200913 0.0957809 0)
(-0.000248304 0.044628 0)
(-0.00821005 0.042187 0)
(-0.0161562 0.0457953 0)
(-0.0236315 0.046549 0)
(-0.0310415 0.0463446 0)
(-0.0384517 0.0464105 0)
(-0.0457589 0.0469278 0)
(-0.0528911 0.0478359 0)
(-0.0598209 0.0489814 0)
(-0.0665452 0.0500989 0)
(-0.0730945 0.0509339 0)
(-0.0795399 0.0513208 0)
(-0.0860325 0.0511358 0)
(-0.0927935 0.050155 0)
(-0.0999381 0.0480285 0)
(-0.10772 0.0441508 0)
(-0.117623 0.0371998 0)
(-0.132329 0.0255794 0)
(-0.151986 0.0124702 0)
(-0.172239 0.00664309 0)
(-0.190488 0.00612536 0)
(3.10905e-05 0.207106 0)
(-0.000583516 0.0969993 0)
(-0.00375888 0.0573671 0)
(-0.0116415 0.0576459 0)
(-0.0187633 0.0605524 0)
(-0.0255834 0.0609262 0)
(-0.0323686 0.0606317 0)
(-0.0391447 0.0605522 0)
(-0.0458435 0.0607971 0)
(-0.0524049 0.0613321 0)
(-0.058798 0.062063 0)
(-0.0650099 0.0627834 0)
(-0.071065 0.0632598 0)
(-0.0769916 0.0633623 0)
(-0.0828106 0.0630716 0)
(-0.0886055 0.0623476 0)
(-0.0945381 0.0610234 0)
(-0.10092 0.0588776 0)
(-0.108277 0.0558634 0)
(-0.11745 0.0516444 0)
(-0.1291 0.0460005 0)
(-0.142976 0.0402958 0)
(-0.158337 0.0365266 0)
(-0.000504875 0.209474 0)
(-0.00281194 0.101325 0)
(-0.00687191 0.0699344 0)
(-0.0141163 0.0715317 0)
(-0.0206772 0.0739327 0)
(-0.02706 0.074119 0)
(-0.0334236 0.0737991 0)
(-0.0397758 0.0736326 0)
(-0.0460728 0.0736825 0)
(-0.0522718 0.0739344 0)
(-0.0583422 0.0743459 0)
(-0.0642833 0.074779 0)
(-0.0701297 0.0750131 0)
(-0.0759206 0.0748824 0)
(-0.0816667 0.0743679 0)
(-0.0873661 0.0735743 0)
(-0.0930871 0.0725955 0)
(-0.0990179 0.0714107 0)
(-0.105403 0.0699677 0)
(-0.112491 0.0682834 0)
(-0.120497 0.0663101 0)
(-0.129793 0.0637391 0)
(-0.140841 0.0611307 0)
(-0.00107238 0.214369 0)
(-0.00463405 0.108031 0)
(-0.00922485 0.0823085 0)
(-0.0158774 0.0844886 0)
(-0.0220324 0.0865367 0)
(-0.028105 0.0866163 0)
(-0.034174 0.0862789 0)
(-0.0402377 0.0860528 0)
(-0.0462694 0.0859735 0)
(-0.0522425 0.0860319 0)
(-0.0581322 0.0862219 0)
(-0.0639354 0.0864757 0)
(-0.0696887 0.0866339 0)
(-0.0754563 0.0865126 0)
(-0.0812875 0.0860241 0)
(-0.0871867 0.0852451 0)
(-0.0931379 0.0843621 0)
(-0.0991618 0.0835402 0)
(-0.105354 0.0828243 0)
(-0.111844 0.0821913 0)
(-0.118693 0.0815907 0)
(-0.126049 0.0807245 0)
(-0.134361 0.0795916 0)
(-0.00165787 0.221449 0)
(-0.00602812 0.116332 0)
(-0.010858 0.0942167 0)
(-0.0170346 0.0967036 0)
(-0.0229133 0.0985547 0)
(-0.0287538 0.0985894 0)
(-0.0346056 0.0982548 0)
(-0.040462 0.0980058 0)
(-0.0463095 0.0978641 0)
(-0.0521329 0.0978172 0)
(-0.0579145 0.0978739 0)
(-0.063645 0.098021 0)
(-0.0693452 0.0981778 0)
(-0.0750748 0.0981992 0)
(-0.0809071 0.0979486 0)
(-0.0868849 0.0973984 0)
(-0.0929949 0.0966735 0)
(-0.0991892 0.0959893 0)
(-0.105444 0.095518 0)
(-0.111792 0.0952969 0)
(-0.11826 0.0952305 0)
(-0.124903 0.0950778 0)
(-0.131994 0.0947413 0)
(-0.0021772 0.230218 0)
(-0.00700393 0.1255 0)
(-0.0118942 0.105643 0)
(-0.0177284 0.10835 0)
(-0.0234045 0.110127 0)
(-0.0290669 0.110166 0)
(-0.0347511 0.109859 0)
(-0.0404537 0.109622 0)
(-0.0461663 0.109471 0)
(-0.0518814 0.10939 0)
(-0.0575878 0.109387 0)
(-0.063274 0.109473 0)
(-0.068942 0.109628 0)
(-0.0746242 0.109774 0)
(-0.080383 0.109789 0)
(-0.0862821 0.109573 0)
(-0.0923464 0.109137 0)
(-0.098544 0.108622 0)
(-0.104811 0.10823 0)
(-0.111101 0.108091 0)
(-0.117392 0.108182 0)
(-0.123726 0.108318 0)
(-0.130313 0.108371 0)
(-0.0025791 0.240185 0)
(-0.00762431 0.135071 0)
(-0.0124952 0.11665 0)
(-0.0180828 0.119576 0)
(-0.0236013 0.121355 0)
(-0.0291247 0.121433 0)
(-0.0346799 0.121176 0)
(-0.0402643 0.120981 0)
(-0.0458726 0.120861 0)
(-0.0515014 0.120798 0)
(-0.0571447 0.120793 0)
(-0.0627931 0.120861 0)
(-0.0684392 0.12101 0)
(-0.0740904 0.121218 0)
(-0.07978 0.121409 0)
(-0.0855618 0.121482 0)
(-0.0914823 0.121365 0)
(-0.0975465 0.121092 0)
(-0.10371 0.120806 0)
(-0.109905 0.120672 0)
(-0.116068 0.12076 0)
(-0.122203 0.120975 0)
(-0.128514 0.121206 0)
(-0.00286016 0.25091 0)
(-0.00794826 0.144786 0)
(-0.0127688 0.127329 0)
(-0.0182084 0.130492 0)
(-0.0236022 0.132318 0)
(-0.0290116 0.132455 0)
(-0.0344621 0.132266 0)
(-0.0399515 0.132135 0)
(-0.0454736 0.132073 0)
(-0.0510279 0.132061 0)
(-0.0566109 0.132096 0)
(-0.0622169 0.132188 0)
(-0.0678381 0.132349 0)
(-0.0734695 0.132585 0)
(-0.0791203 0.132868 0)
(-0.0848204 0.133124 0)
(-0.0906123 0.133263 0)
(-0.0965238 0.133239 0)
(-0.10254 0.133105 0)
(-0.108614 0.132993 0)
(-0.114671 0.133025 0)
(-0.120669 0.133212 0)
(-0.1268 0.133486 0)
(-0.00300856 0.262023 0)
(-0.00806366 0.154519 0)
(-0.012849 0.13777 0)
(-0.0181745 0.141181 0)
(-0.0234724 0.143069 0)
(-0.0287903 0.143276 0)
(-0.0341517 0.143167 0)
(-0.039557 0.143116 0)
(-0.0450029 0.143129 0)
(-0.0504881 0.143188 0)
(-0.0560105 0.143289 0)
(-0.0615669 0.143434 0)
(-0.0671515 0.143634 0)
(-0.0727582 0.1439 0)
(-0.078391 0.144231 0)
(-0.0840517 0.144596 0)
(-0.0897634 0.144915 0)
(-0.0955655 0.145103 0)
(-0.101468 0.145138 0)
(-0.10744 0.14509 0)
(-0.113394 0.145078 0)
(-0.11929 0.145183 0)
(-0.125339 0.145419 0)
(-0.00304254 0.273239 0)
(-0.0080362 0.164186 0)
(-0.0128032 0.148053 0)
(-0.0180397 0.151702 0)
(-0.023259 0.153647 0)
(-0.0284957 0.153924 0)
(-0.0337769 0.153904 0)
(-0.0391047 0.153941 0)
(-0.0444776 0.154041 0)
(-0.0498949 0.154183 0)
(-0.0553553 0.154364 0)
(-0.0608574 0.154585 0)
(-0.0663997 0.154849 0)
(-0.0719762 0.155166 0)
(-0.0775745 0.155545 0)
(-0.0832003 0.155983 0)
(-0.0888709 0.156424 0)
(-0.0946055 0.156782 0)
(-0.100426 0.156985 0)
(-0.106326 0.157039 0)
(-0.112238 0.157025 0)
(-0.118104 0.157043 0)
(-0.124145 0.157199 0)
(-0.00300026 0.284357 0)
(-0.00791216 0.173758 0)
(-0.0126768 0.158231 0)
(-0.0178483 0.162086 0)
(-0.0229936 0.164066 0)
(-0.0281507 0.164411 0)
(-0.0333525 0.164481 0)
(-0.0386027 0.164613 0)
(-0.0439005 0.164806 0)
(-0.0492461 0.165041 0)
(-0.054639 0.165313 0)
(-0.0600788 0.165624 0)
(-0.0655654 0.165974 0)
(-0.0710967 0.166367 0)
(-0.0766654 0.166813 0)
(-0.0822679 0.167312 0)
(-0.0879077 0.167844 0)
(-0.0935991 0.168337 0)
(-0.0993657 0.1687 0)
(-0.105219 0.168883 0)
(-0.111112 0.168917 0)
(-0.116986 0.168899 0)
(-0.123081 0.168986 0)
(-0.00291427 0.295246 0)
(-0.00773428 0.183252 0)
(-0.0125033 0.168337 0)
(-0.0176201 0.172342 0)
(-0.0226877 0.174326 0)
(-0.0277607 0.174731 0)
(-0.032879 0.174894 0)
(-0.038047 0.175123 0)
(-0.0432645 0.175414 0)
(-0.0485321 0.175748 0)
(-0.0538507 0.176121 0)
(-0.0592211 0.176533 0)
(-0.0646443 0.176983 0)
(-0.0701206 0.177471 0)
(-0.0756473 0.178001 0)
(-0.0812189 0.178579 0)
(-0.0868324 0.179197 0)
(-0.0924953 0.17981 0)
(-0.0982279 0.180329 0)
(-0.104052 0.180671 0)
(-0.10994 0.180818 0)
(-0.11584 0.180835 0)
(-0.122025 0.180901 0)
(-0.0027832 0.305812 0)
(-0.00752017 0.192695 0)
(-0.0123016 0.17838 0)
(-0.0173462 0.182453 0)
(-0.0223225 0.184411 0)
(-0.0273038 0.184874 0)
(-0.0323318 0.185131 0)
(-0.0374106 0.18546 0)
(-0.0425403 0.185853 0)
(-0.0477223 0.186291 0)
(-0.0529585 0.186772 0)
(-0.0582509 0.187296 0)
(-0.0636019 0.187859 0)
(-0.0690134 0.18846 0)
(-0.0744854 0.189097 0)
(-0.0800148 0.189775 0)
(-0.0855979 0.190493 0)
(-0.0912372 0.191226 0)
(-0.0969479 0.191902 0)
(-0.102756 0.19243 0)
(-0.108651 0.192752 0)
(-0.114588 0.192896 0)
(-0.120876 0.193032 0)
(-0.00263009 0.316017 0)
(-0.0072991 0.202084 0)
(-0.0120368 0.18831 0)
(-0.0169768 0.192375 0)
(-0.021842 0.194296 0)
(-0.0267204 0.194822 0)
(-0.0316483 0.195176 0)
(-0.0366278 0.195607 0)
(-0.0416595 0.196104 0)
(-0.0467458 0.196652 0)
(-0.0518896 0.197249 0)
(-0.0570939 0.197893 0)
(-0.0623625 0.198583 0)
(-0.0676988 0.199313 0)
(-0.0731051 0.20008 0)
(-0.0785804 0.200883 0)
(-0.0841227 0.201724 0)
(-0.0897375 0.202592 0)
(-0.0954335 0.203437 0)
(-0.101233 0.204176 0)
(-0.107139 0.204732 0)
(-0.113115 0.205094 0)
(-0.119504 0.205409 0)
(-0.00249889 0.325843 0)
(-0.00707435 0.21132 0)
(-0.0116345 0.198001 0)
(-0.0164136 0.202045 0)
(-0.0211545 0.203951 0)
(-0.0259195 0.204551 0)
(-0.0307348 0.205005 0)
(-0.035601 0.20554 0)
(-0.0405205 0.206146 0)
(-0.0454969 0.206809 0)
(-0.050534 0.207528 0)
(-0.0556363 0.208303 0)
(-0.0608085 0.209131 0)
(-0.0660556 0.210007 0)
(-0.0713818 0.210924 0)
(-0.0767905 0.211881 0)
(-0.0822834 0.212877 0)
(-0.0878641 0.213906 0)
(-0.0935408 0.214942 0)
(-0.0993359 0.21592 0)
(-0.105257 0.216759 0)
(-0.111271 0.217424 0)
(-0.117749 0.218024 0)
(-0.00242299 0.335284 0)
(-0.00677495 0.220166 0)
(-0.0109973 0.207262 0)
(-0.0155838 0.211398 0)
(-0.0201871 0.213353 0)
(-0.0248251 0.214035 0)
(-0.0295103 0.214587 0)
(-0.0342434 0.215226 0)
(-0.0390303 0.215943 0)
(-0.0438758 0.216727 0)
(-0.048785 0.217577 0)
(-0.0537637 0.218493 0)
(-0.058818 0.219471 0)
(-0.0639544 0.220508 0)
(-0.0691792 0.221598 0)
(-0.0744991 0.222737 0)
(-0.0799204 0.223922 0)
(-0.0854489 0.225152 0)
(-0.0910933 0.226412 0)
(-0.0968747 0.227659 0)
(-0.102803 0.228826 0)
(-0.108842 0.229868 0)
(-0.115382 0.230857 0)
(-0.00241829 0.344347 0)
(-0.0063575 0.228267 0)
(-0.0100915 0.215885 0)
(-0.0144687 0.220392 0)
(-0.0189296 0.222478 0)
(-0.0234275 0.22324 0)
(-0.0279606 0.223879 0)
(-0.032535 0.224619 0)
(-0.0371623 0.225449 0)
(-0.0418484 0.226356 0)
(-0.0465999 0.227343 0)
(-0.051424 0.228408 0)
(-0.0563281 0.22955 0)
(-0.0613205 0.230764 0)
(-0.0664099 0.232048 0)
(-0.0716058 0.233396 0)
(-0.0769183 0.234807 0)
(-0.0823578 0.236279 0)
(-0.0879352 0.237805 0)
(-0.093671 0.23936 0)
(-0.0995762 0.240898 0)
(-0.105612 0.242378 0)
(-0.112168 0.243842 0)
(-0.00247728 0.352992 0)
(-0.00580327 0.235258 0)
(-0.00897004 0.223748 0)
(-0.013162 0.229017 0)
(-0.0174755 0.23131 0)
(-0.0218023 0.232126 0)
(-0.0261583 0.232832 0)
(-0.0305451 0.233663 0)
(-0.0349818 0.234601 0)
(-0.0394751 0.235632 0)
(-0.0440329 0.236758 0)
(-0.048664 0.237977 0)
(-0.0533769 0.239291 0)
(-0.0581815 0.240696 0)
(-0.0630888 0.242191 0)
(-0.0681109 0.243773 0)
(-0.0732608 0.245441 0)
(-0.0785528 0.247193 0)
(-0.0840015 0.249027 0)
(-0.0896282 0.250933 0)
(-0.0954472 0.252883 0)
(-0.101416 0.254851 0)
(-0.107898 0.25686 0)
(-0.00255293 0.361129 0)
(-0.00513279 0.240938 0)
(-0.007791 0.230867 0)
(-0.011808 0.237287 0)
(-0.0159628 0.23981 0)
(-0.0200826 0.240637 0)
(-0.0242297 0.241386 0)
(-0.0283976 0.242296 0)
(-0.0326104 0.243335 0)
(-0.0368747 0.244484 0)
(-0.041202 0.245744 0)
(-0.0456015 0.247117 0)
(-0.0500784 0.248603 0)
(-0.054646 0.250204 0)
(-0.0593173 0.25192 0)
(-0.0641061 0.253751 0)
(-0.0690269 0.255695 0)
(-0.0740963 0.257753 0)
(-0.079332 0.259928 0)
(-0.0847578 0.262217 0)
(-0.0903935 0.264611 0)
(-0.0961928 0.267102 0)
(-0.102473 0.269714 0)
(-0.00255271 0.3686 0)
(-0.00434651 0.245363 0)
(-0.00671284 0.237391 0)
(-0.0105481 0.245196 0)
(-0.014514 0.247896 0)
(-0.0183701 0.24869 0)
(-0.0222729 0.249469 0)
(-0.0261912 0.25045 0)
(-0.0301486 0.25158 0)
(-0.0341556 0.252838 0)
(-0.0382181 0.254223 0)
(-0.0423455 0.255741 0)
(-0.0465456 0.257394 0)
(-0.0508262 0.259184 0)
(-0.0552057 0.261116 0)
(-0.059703 0.263191 0)
(-0.0643256 0.265412 0)
(-0.0690899 0.267784 0)
(-0.0740177 0.270311 0)
(-0.0791349 0.273001 0)
(-0.0844693 0.275856 0)
(-0.0899604 0.278888 0)
(-0.0958675 0.282116 0)
(-0.0023397 0.375157 0)
(-0.00341216 0.248862 0)
(-0.00581704 0.243555 0)
(-0.00940524 0.252707 0)
(-0.0131445 0.255466 0)
(-0.0166912 0.256206 0)
(-0.0203133 0.25702 0)
(-0.0239557 0.258069 0)
(-0.0276301 0.259281 0)
(-0.0313505 0.260635 0)
(-0.0351185 0.262133 0)
(-0.0389413 0.263781 0)
(-0.0428276 0.265584 0)
(-0.0467856 0.267546 0)
(-0.0508285 0.269671 0)
(-0.0549707 0.271969 0)
(-0.0592232 0.274446 0)
(-0.0636017 0.27711 0)
(-0.068125 0.279971 0)
(-0.0728174 0.283043 0)
(-0.0777089 0.286339 0)
(-0.0827521 0.289889 0)
(-0.0881576 0.293699 0)
(-0.00176374 0.380316 0)
(-0.00222358 0.251993 0)
(-0.00504007 0.249583 0)
(-0.00830829 0.259774 0)
(-0.0117805 0.262435 0)
(-0.0149946 0.263136 0)
(-0.0183132 0.264005 0)
(-0.0216617 0.265123 0)
(-0.025034 0.266408 0)
(-0.0284461 0.267844 0)
(-0.0318971 0.269437 0)
(-0.035391 0.271192 0)
(-0.0389343 0.273117 0)
(-0.0425339 0.27522 0)
(-0.046199 0.277507 0)
(-0.0499393 0.27999 0)
(-0.0537654 0.282678 0)
(-0.0576896 0.285584 0)
(-0.0617264 0.288725 0)
(-0.0658964 0.29212 0)
(-0.0702249 0.295792 0)
(-0.0746731 0.299777 0)
(-0.0794166 0.304084 0)
(-0.000633755 0.383183 0)
(-0.000633425 0.255547 0)
(-0.00424274 0.255589 0)
(-0.00711446 0.266308 0)
(-0.0103125 0.268731 0)
(-0.0132103 0.26943 0)
(-0.0162265 0.27037 0)
(-0.0192764 0.271553 0)
(-0.0223399 0.272898 0)
(-0.0254329 0.274397 0)
(-0.0285532 0.27606 0)
(-0.0317016 0.277894 0)
(-0.0348818 0.279908 0)
(-0.0380978 0.28211 0)
(-0.041355 0.284511 0)
(-0.0446598 0.287124 0)
(-0.0480185 0.289962 0)
(-0.0514385 0.29304 0)
(-0.0549285 0.29638 0)
(-0.0585025 0.300007 0)
(-0.0621765 0.303949 0)
(-0.0659135 0.308246 0)
(-0.0698529 0.312903 0)
(0.00090307 0.38247 0)
(0.00118205 0.2602 0)
(-0.00324964 0.261716 0)
(-0.00571829 0.272297 0)
(-0.00868615 0.274359 0)
(-0.0113113 0.275084 0)
(-0.0140471 0.276092 0)
(-0.016806 0.277318 0)
(-0.0195661 0.278697 0)
(-0.0223425 0.280234 0)
(-0.0251278 0.281936 0)
(-0.027924 0.283814 0)
(-0.0307318 0.285874 0)
(-0.0335521 0.288129 0)
(-0.0363866 0.29059 0)
(-0.0392377 0.293269 0)
(-0.0421072 0.296183 0)
(-0.0449968 0.299349 0)
(-0.0479082 0.30279 0)
(-0.050846 0.306532 0)
(-0.0538137 0.310608 0)
(-0.0567746 0.315058 0)
(-0.0598326 0.319878 0)
(0.00253382 0.378088 0)
(0.00303336 0.265624 0)
(-0.00200988 0.268222 0)
(-0.00419599 0.27795 0)
(-0.00697264 0.279588 0)
(-0.00935318 0.280341 0)
(-0.0118298 0.281382 0)
(-0.0143144 0.282615 0)
(-0.0167808 0.283994 0)
(-0.019243 0.285533 0)
(-0.0216984 0.287239 0)
(-0.0241456 0.289119 0)
(-0.0265832 0.291184 0)
(-0.0290096 0.293441 0)
(-0.0314235 0.295904 0)
(-0.0338235 0.298585 0)
(-0.0362071 0.301499 0)
(-0.03857 0.304664 0)
(-0.0409063 0.308099 0)
(-0.0432106 0.311831 0)
(-0.0454724 0.315889 0)
(-0.0476551 0.320312 0)
(-0.0498289 0.325094 0)
(0.00400265 0.370448 0)
(0.00468666 0.271593 0)
(-0.000779586 0.275032 0)
(-0.00266595 0.283296 0)
(-0.0052776 0.284517 0)
(-0.00744559 0.285279 0)
(-0.00967473 0.286306 0)
(-0.0118929 0.287503 0)
(-0.014076 0.288848 0)
(-0.0162351 0.290352 0)
(-0.0183713 0.292023 0)
(-0.0204818 0.293867 0)
(-0.0225639 0.295891 0)
(-0.0246149 0.298105 0)
(-0.0266314 0.300516 0)
(-0.0286091 0.303137 0)
(-0.0305419 0.30598 0)
(-0.0324196 0.309058 0)
(-0.0342265 0.312386 0)
(-0.0359536 0.315984 0)
(-0.0375816 0.319878 0)
(-0.0390615 0.324098 0)
(-0.0404286 0.328643 0)
(0.00525437 0.359582 0)
(0.00602757 0.277496 0)
(0.00021398 0.281403 0)
(-0.00131436 0.28777 0)
(-0.00377222 0.288621 0)
(-0.00572641 0.289357 0)
(-0.00771892 0.290315 0)
(-0.00967916 0.291433 0)
(-0.0115924 0.292705 0)
(-0.0134669 0.294139 0)
(-0.015305 0.295739 0)
(-0.0171047 0.297512 0)
(-0.0188631 0.299459 0)
(-0.0205782 0.301589 0)
(-0.022246 0.303906 0)
(-0.0238595 0.306419 0)
(-0.0254106 0.309135 0)