/*--------------------------------*- C++ -*----------------------------------*\
| =========                 |                                                 |
| \\      /  F ield         | OpenFOAM: The Open Source CFD Toolbox           |
|  \\    /   O peration     | Version:  2206                                  |
|   \\  /    A nd           | Website:  www.openfoam.com                      |
|    \\/     M anipulation  |                                                 |
\*---------------------------------------------------------------------------*/
FoamFile
{
    version     2.0;
    format      ascii;
    arch        "LSB;label=32;scalar=64";
    class       volScalarField;
    location    "0.075";
    object      p;
}
// * * * * * * * * * * * * * * * * * * * * * * * * * * * * * * * * * * * * * //

dimensions      [1 -1 -2 0 0 0 0];

internalField   nonuniform List<scalar> 
2268
(
1507.16
1503.02
1492.76
1476.96
1455.8
1429.03
1396.39
1357.58
1312.22
1259.87
1199.95
1131.9
1055.14
967.953
870.726
763.911
640.633
493.451
335.274
217.918
179.975
189.225
201.608
1335.69
1331.44
1321.13
1305.32
1284.11
1257.22
1224.37
1185.2
1139.25
1085.97
1024.55
954.229
873.758
780.562
675.708
557.111
402.082
206.951
66.6408
28.5393
32.4851
66.4358
91.3379
1172.61
1168.18
1157.85
1142.11
1120.93
1094.03
1061.08
1021.68
975.286
921.228
858.529
786.234
702.414
604.187
493.575
360.069
174.903
36.6177
9.18177
5.77538
6.34202
9.36201
18.7989
1018.92
1014.33
1004.11
988.631
967.762
941.217
908.674
869.715
823.791
770.22
708.039
636.369
553.102
456.539
349.231
212.11
53.1516
7.09533
2.16034
1.43004
1.09915
0.765626
2.57191
875.705
871.04
861.139
846.223
826.084
800.472
769.094
731.569
687.411
636.026
576.613
508.51
429.79
340.365
241.581
112.428
9.60661
1.82543
1.38071
1.27215
1.2363
1.48261
2.14297
743.815
739.206
729.863
715.83
696.882
672.821
643.407
608.327
567.2
519.577
464.873
402.695
331.485
252.501
165.013
55.0893
3.47809
1.71196
1.43473
1.60326
1.77018
2.05797
2.17738
623.799
619.397
610.833
597.984
580.649
558.688
531.919
500.116
463.005
420.284
371.569
316.696
254.477
186.99
111.576
23.0664
1.26948
0.889973
0.971921
1.09009
1.1796
1.24642
1.13924
515.635
511.576
503.97
492.557
477.178
457.742
434.126
406.183
373.742
336.622
294.589
247.656
194.791
138.38
74.5845
7.79486
0.269052
0.0668909
0.309065
0.33754
0.355991
0.280294
-0.0620835
0.402748
0.401603
0.399231
0.395786
0.391433
0.386372
0.38082
0.374992
0.369088
0.363276
0.357704
0.352497
0.347758
0.343571
0.339999
0.33709
0.33488
0.333398
0.332656
0.224909
0.223758
0.22131
0.217725
0.213182
0.207899
0.202116
0.19606
0.189948
0.183956
0.178233
0.172903
0.168067
0.163802
0.160168
0.157214
0.154974
0.153472
0.152719
0.0482734
0.0471462
0.0445592
0.0406874
0.0357462
0.0300033
0.0237451
0.0172347
0.010702
0.00434172
-0.00169106
-0.00727596
-0.0123183
-0.016745
-0.0205012
-0.0235463
-0.0258505
-0.0273942
-0.028167
-0.12727
-0.128176
-0.130899
-0.135223
-0.14082
-0.147311
-0.154328
-0.16156
-0.168739
-0.175655
-0.182152
-0.188114
-0.193454
-0.198111
-0.202043
-0.205218
-0.207613
-0.209214
-0.210014
-0.301913
-0.302042
-0.3048
-0.309826
-0.316438
-0.324056
-0.332185
-0.340437
-0.348503
-0.356163
-0.363266
-0.369708
-0.375424
-0.38037
-0.384519
-0.387851
-0.390355
-0.392023
-0.392856
-0.47488
-0.473876
-0.4768
-0.482912
-0.491035
-0.500269
-0.509976
-0.519577
-0.52878
-0.53736
-0.545189
-0.552196
-0.558343
-0.563613
-0.568001
-0.571504
-0.574125
-0.575867
-0.576735
-0.652854
-0.64437
-0.646599
-0.654298
-0.664616
-0.676167
-0.687946
-0.699283
-0.709856
-0.719497
-0.728135
-0.735748
-0.742346
-0.747947
-0.752574
-0.756245
-0.75898
-0.760792
-0.761693
-0.877701
-0.815124
-0.810102
-0.822594
-0.837119
-0.8521
-0.866592
-0.880018
-0.892132
-0.902902
-0.912358
-0.920561
-0.927583
-0.933487
-0.938326
-0.942143
-0.944974
-0.946845
-0.947775
439.066
435.311
428.548
418.355
404.644
387.359
366.411
341.706
313.143
280.631
244.027
203.519
157.926
110.854
55.616
1.97709
-0.170746
-0.232775
-0.00523996
-0.0487815
-0.105756
-0.311264
-1.06914
386.607
383.102
376.947
367.654
355.178
339.483
320.501
298.169
272.434
243.262
210.581
174.615
134.32
93.4422
44.4744
0.8685
-0.205136
-0.323403
-0.184275
-0.229067
-0.300979
-0.466487
-0.84976
337.166
333.928
328.383
320.005
308.784
294.701
277.707
257.76
234.843
208.971
180.139
148.582
113.403
78.1982
35.121
0.119665
-0.381495
-0.408695
-0.354496
-0.366719
-0.407325
-0.494224
-0.613104
290.507
287.557
282.633
275.183
265.233
252.777
237.787
220.233
200.121
177.506
152.43
125.127
94.836
64.8459
27.326
-0.243012
-0.489879
-0.504345
-0.495459
-0.494461
-0.521715
-0.584859
-0.650562
246.386
243.741
239.443
232.928
224.247
213.411
200.411
185.23
167.89
148.468
127.034
103.807
78.1512
52.9635
20.7682
-0.358766
-0.533081
-0.590534
-0.63267
-0.639603
-0.676458
-0.738622
-0.801439
204.363
202.029
198.346
192.759
185.308
176.042
164.971
152.092
137.44
121.099
103.147
83.7761
62.471
41.718
14.7806
-0.568115
-0.700039
-0.706911
-0.80638
-0.8134
-0.856548
-0.913129
-0.968253
164.356
162.378
159.329
154.665
148.411
140.659
131.45
120.796
108.739
95.3617
80.7334
65.0136
47.767
31.0465
9.1884
-0.903836
-1.08726
-0.910187
-1.01245
-1.01249
-1.05162
-1.09919
-1.14574
127.03
125.226
122.826
119.061
113.976
107.701
100.281
91.7515
82.1616
71.5945
60.1207
47.9006
34.5312
21.5549
4.61127
-1.19501
-1.45006
-1.1506
-1.22247
-1.22325
-1.25777
-1.29814
-1.337
90.6496
88.4823
86.6213
83.6972
79.6862
74.7864
69.0088
62.4013
55.0247
46.9722
38.3492
29.3841
19.7882
10.9536
0.31155
-1.58445
-1.50466
-1.32724
-1.3893
-1.42784
-1.46871
-1.50528
-1.5362
50.1878
48.0471
46.6834
44.5322
41.5624
37.9639
33.7572
28.9882
23.7253
18.0869
12.2023
6.37152
0.496228
-3.73078
-6.63145
-1.63945
-1.15236
-1.36865
-1.55312
-1.63613
-1.68632
-1.71913
-1.74055
16.2737
15.4125
14.741
13.5086
11.8444
9.81846
7.4933
4.92318
2.18457
-0.582747
-3.27513
-5.49809
-7.3688
-7.66889
-6.13019
-1.82491
-0.878739
-1.40841
-1.77509
-1.88265
-1.92523
-1.94622
-1.95245
9.74867
9.61936
9.53016
9.26737
8.90914
8.47327
7.99994
7.52383
7.09376
6.78808
6.64091
7.20442
8.15649
9.50426
9.31915
-0.469955
-1.58006
-1.96209
-2.2703
-2.25307
-2.21437
-2.1956
-2.17417
1.35325
1.28271
1.15763
0.988272
0.76298
0.493436
0.183541
-0.159451
-0.528913
-0.924213
-1.34121
-1.74295
-2.65904
-3.30425
-4.24813
-3.97447
-4.39036
-3.50222
-3.09299
-2.74038
-2.5572
-2.46466
-2.40103
-3.9417
-3.93935
-3.93856
-3.93611
-3.93281
-3.92907
-3.92648
-3.92636
-3.93029
-3.94086
-3.96164
-3.99586
-4.0679
-4.23372
-4.48391
-4.86275
-5.59733
-5.14622
-3.87261
-3.19119
-2.89142
-2.72251
-2.61815
-3.99797
-3.99445
-3.99231
-3.98943
-3.98543
-3.98103
-3.97727
-3.97528
-3.97622
-3.9816
-3.99358
-4.01658
-4.06937
-4.19077
-4.42496
-4.84221
-5.35453
-5.20284
-4.12271
-3.473
-3.13207
-2.93295
-2.80993
-4.02779
-4.02487
-4.02211
-4.01807
-4.01273
-4.007
-4.00148
-3.99678
-3.99338
-3.99202
-3.99417
-4.00117
-4.0186
-4.07419
-4.22638
-4.47507
-4.62457
-4.46925
-3.93947
-3.5241
-3.25767
-3.08418
-2.96858
-4.06356
-4.06259
-4.05909
-4.05365
-4.04711
-4.03994
-4.03243
-4.02473
-4.01687
-4.00928
-4.00261
-3.99571
-3.98917
-3.99661
-4.04364
-4.11086
-4.09446
-3.9299
-3.67847
-3.47341
-3.31479
-3.19261
-3.09941
-4.10269
-4.10189
-4.09767
-4.09128
-4.08366
-4.075
-4.06535
-4.05462
-4.04269
-4.02978
-4.01567
-3.99849
-3.97818
-3.96147
-3.95397
-3.93682
-3.86863
-3.74128
-3.59731
-3.47836
-3.3761
-3.28908
-3.21623
-4.1448
-4.14259
-4.13785
-4.13112
-4.12272
-4.11275
-4.10114
-4.08776
-4.07245
-4.05524
-4.03566
-4.01231
-3.98497
-3.95588
-3.92496
-3.88283
-3.81655
-3.72637
-3.62774
-3.53858
-3.45895
-3.3894
-3.32929
-4.1884
-4.18554
-4.18075
-4.17396
-4.16512
-4.1543
-4.14139
-4.12619
-4.1085
-4.08831
-4.06524
-4.03848
-4.00784
-3.97364
-3.93435
-3.88578
-3.82564
-3.75681
-3.68513
-3.61557
-3.55078
-3.49246
-3.44087
-4.23289
-4.23043
-4.22581
-4.21885
-4.20961
-4.19819
-4.18455
-4.16841
-4.14955
-4.12789
-4.10326
-4.07525
-4.0436
-4.00816
-3.96806
-3.92169
-3.86885
-3.81215
-3.75437
-3.69797
-3.64451
-3.59513
-3.5504
-4.28104
-4.27914
-4.27464
-4.26747
-4.25788
-4.24603
-4.23198
-4.21552
-4.19642
-4.17452
-4.14973
-4.12192
-4.09089
-4.05639
-4.01808
-3.97564
-3.92954
-3.88132
-3.8327
-3.78513
-3.73969
-3.69714
-3.65798
-4.33348
-4.33184
-4.32743
-4.32025
-4.31058
-4.29862
-4.28445
-4.26804
-4.24919
-4.22773
-4.20358
-4.17672
-4.14707
-4.11451
-4.07898
-4.04062
-4.00002
-3.95821
-3.91634
-3.87533
-3.8359
-3.79866
-3.76404
-4.38872
-4.38706
-4.3828
-4.37592
-4.36661
-4.35498
-4.34112
-4.3251
-4.30683
-4.28619
-4.26312
-4.23763
-4.20973
-4.17945
-4.14688
-4.11232
-4.0763
-4.03956
-4.00293
-3.96707
-3.93249
-3.89961
-3.8688
-4.44523
-4.44346
-4.43942
-4.43304
-4.4244
-4.41349
-4.40037
-4.38514
-4.36777
-4.34824
-4.32653
-4.30268
-4.27677
-4.2489
-4.21926
-4.18818
-4.15611
-4.12361
-4.09128
-4.05968
-4.02912
-3.99995
-3.97247
-4.50256
-4.50072
-4.49692
-4.49112
-4.48324
-4.47325
-4.46117
-4.44701
-4.43084
-4.41268
-4.39256
-4.37055
-4.34678
-4.32139
-4.29461
-4.26674
-4.23819
-4.20938
-4.18077
-4.15276
-4.12569
-4.09976
-4.07522
-4.56124
-4.5594
-4.55586
-4.55058
-4.54343
-4.53438
-4.52339
-4.51047
-4.49566
-4.47905
-4.46068
-4.44064
-4.41908
-4.39618
-4.37216
-4.3473
-4.32194
-4.29642
-4.27109
-4.24628
-4.22225
-4.19918
-4.17726
-4.62209
-4.62032
-4.61703
-4.61219
-4.6057
-4.5975
-4.58755
-4.57587
-4.56248
-4.54746
-4.53087
-4.51283
-4.49348
-4.47301
-4.45161
-4.42954
-4.40708
-4.38452
-4.36212
-4.34015
-4.31882
-4.29831
-4.27876
-4.68576
-4.68411
-4.68106
-4.6766
-4.67067
-4.66323
-4.65423
-4.64371
-4.63168
-4.61819
-4.60334
-4.58723
-4.57
-4.5518
-4.53285
-4.51334
-4.49351
-4.47359
-4.45382
-4.43439
-4.41549
-4.39727
-4.37984
-4.75251
-4.75101
-4.7482
-4.7441
-4.73868
-4.7319
-4.72377
-4.7143
-4.70351
-4.69146
-4.67822
-4.6639
-4.64863
-4.63254
-4.6158
-4.5986
-4.58114
-4.56359
-4.54616
-4.529
-4.51228
-4.49611
-4.48061
-4.82231
-4.82094
-4.81837
-4.81463
-4.80968
-4.80352
-4.79618
-4.78766
-4.778
-4.76725
-4.75549
-4.7428
-4.7293
-4.7151
-4.70036
-4.68523
-4.66987
-4.65445
-4.6391
-4.62398
-4.60921
-4.5949
-4.58113
-4.89486
-4.89363
-4.89131
-4.8879
-4.88341
-4.87784
-4.87123
-4.86358
-4.85495
-4.84539
-4.83496
-4.82374
-4.81182
-4.79932
-4.78637
-4.77308
-4.75961
-4.74606
-4.73258
-4.71928
-4.70627
-4.69364
-4.68146
-4.96979
-4.96871
-4.96663
-4.96355
-4.9595
-4.9545
-4.94857
-4.94174
-4.93405
-4.92557
-4.91634
-4.90644
-4.89595
-4.88498
-4.87362
-4.86199
-4.85019
-4.83833
-4.82652
-4.81487
-4.80345
-4.79235
-4.78163
-5.04674
-5.04579
-5.04393
-5.04119
-5.03757
-5.03311
-5.02782
-5.02176
-5.01496
-5.00746
-4.99933
-4.99063
-4.98144
-4.97184
-4.96192
-4.95177
-4.94148
-4.93115
-4.92086
-4.91069
-4.90073
-4.89103
-4.88165
-5.12535
-5.12452
-5.12288
-5.12045
-5.11725
-5.1133
-5.10864
-5.1033
-5.09732
-5.09075
-5.08363
-5.07603
-5.06803
-5.05968
-5.05107
-5.04227
-5.03336
-5.02441
-5.01551
-5.00671
-4.99809
-4.98969
-4.98156
-5.20532
-5.2046
-5.20317
-5.20104
-5.19824
-5.19479
-5.19072
-5.18607
-5.18087
-5.17515
-5.16898
-5.16241
-5.1555
-5.14831
-5.1409
-5.13334
-5.1257
-5.11804
-5.11042
-5.1029
-5.09552
-5.08834
-5.08139
-5.2864
-5.28578
-5.28455
-5.28272
-5.28031
-5.27734
-5.27383
-5.26983
-5.26535
-5.26045
-5.25517
-5.24957
-5.24368
-5.23757
-5.23128
-5.22488
-5.21843
-5.21196
-5.20554
-5.19921
-5.19301
-5.18698
-5.18114
-5.36835
-5.36784
-5.3668
-5.36525
-5.36321
-5.3607
-5.35773
-5.35434
-5.35057
-5.34645
-5.34203
-5.33733
-5.33242
-5.32732
-5.32209
-5.31679
-5.31145
-5.30612
-5.30083
-5.29563
-5.29055
-5.28561
-5.28085
-5.45104
-5.45062
-5.44976
-5.44849
-5.4468
-5.44472
-5.44227
-5.43948
-5.43638
-5.43301
-5.4294
-5.42558
-5.42158
-5.41745
-5.41324
-5.40898
-5.4047
-5.40045
-5.39625
-5.39214
-5.38813
-5.38425
-5.38052
-5.53451
-5.53419
-5.53351
-5.53249
-5.53113
-5.52946
-5.52749
-5.52527
-5.52281
-5.52014
-5.51729
-5.51428
-5.51116
-5.50795
-5.50469
-5.50142
-5.49817
-5.49495
-5.49179
-5.48872
-5.48574
-5.48289
-5.48017
-5.61842
-5.6182
-5.6177
-5.61692
-5.61589
-5.61462
-5.61313
-5.61145
-5.60961
-5.60762
-5.6055
-5.60329
-5.60101
-5.59869
-5.59636
-5.59405
-5.59178
-5.58956
-5.58741
-5.58536
-5.5834
-5.58155
-5.57982
-5.70125
-5.70118
-5.70087
-5.70037
-5.6997
-5.69888
-5.69793
-5.69686
-5.6957
-5.69445
-5.69315
-5.6918
-5.69044
-5.68908
-5.68775
-5.68645
-5.68521
-5.68404
-5.68294
-5.68193
-5.68101
-5.68019
-5.67946
-2.32608
-1.59949
-1.27616
-1.07467
-1.47825
-1.40752
-1.20579
-1.07735
-0.913266
-1.08395
-1.08216
-1.06344
-0.818461
-0.976533
-1.04542
-1.08474
-0.906271
-1.01559
-1.09243
-1.15226
-1.04057
-1.12193
-1.19366
-1.25447
-1.20156
-1.26551
-1.32551
-1.37845
-1.38034
-1.42817
-1.47413
-1.51679
-1.56714
-1.59995
-1.63268
-1.66477
-1.75854
-1.77724
-1.79742
-1.81893
-1.95442
-1.95819
-1.96574
-1.97667
-2.15412
-2.14092
-2.13541
-2.13588
-2.35396
-2.32255
-2.30407
-2.29457
-2.54658
-2.49891
-2.46902
-2.45076
-2.72445
-2.66599
-2.62781
-2.60279
-2.88301
-2.8214
-2.77903
-2.74967
-3.02377
-2.96511
-2.92221
-2.89087
-3.15243
-3.0993
-3.05815
-3.02656
-3.27453
-3.22679
-3.1882
-3.15738
-3.39273
-3.34954
-3.3136
-3.28403
-3.50773
-3.46855
-3.4352
-3.40714
-3.62
-3.58445
-3.55362
-3.52721
-3.73005
-3.69777
-3.66938
-3.64469
-3.8383
-3.80899
-3.78291
-3.75995
-3.94505
-3.91846
-3.89458
-3.87333
-4.05059
-4.0265
-4.00469
-3.98511
-4.15514
-4.13337
-4.1135
-4.09553
-4.25892
-4.23927
-4.22123
-4.2048
-4.36208
-4.34439
-4.32805
-4.3131
-4.46475
-4.44887
-4.43413
-4.42057
-4.56701
-4.5528
-4.53957
-4.52733
-4.66893
-4.65629
-4.64446
-4.63348
-4.77057
-4.75938
-4.74888
-4.7391
-4.87197
-4.86215
-4.8529
-4.84427
-4.97316
-4.96463
-4.9566
-4.94908
-5.0742
-5.0669
-5.06002
-5.05357
-5.17512
-5.169
-5.16322
-5.15781
-5.27594
-5.27096
-5.26626
-5.26186
-5.37669
-5.3728
-5.36917
-5.36577
-5.47739
-5.4746
-5.472
-5.46958
-5.57808
-5.57637
-5.5748
-5.57334
-5.67877
-5.67814
-5.67761
-5.67713
-1.001
-0.940309
-0.933108
-0.952462
-0.972981
-0.9915
-1.00841
-1.0235
-1.03676
-1.04833
-1.05834
-1.06693
-1.07422
-1.08031
-1.08527
-1.08916
-1.09205
-1.09395
-1.09489
-1.03337
-1.01813
-1.0263
-1.04938
-1.07309
-1.094
-1.1125
-1.12867
-1.14268
-1.15475
-1.1651
-1.17392
-1.18136
-1.18754
-1.19256
-1.1965
-1.19941
-1.20132
-1.20227
-1.07131
-1.09388
-1.11895
-1.14777
-1.17474
-1.19784
-1.21772
-1.2348
-1.24941
-1.26187
-1.27247
-1.28145
-1.28899
-1.29524
-1.30029
-1.30425
-1.30717
-1.30909
-1.31004
-1.1309
-1.17771
-1.21544
-1.24916
-1.27862
-1.30339
-1.3243
-1.34202
-1.35703
-1.36975
-1.38051
-1.38957
-1.39715
-1.40341
-1.40847
-1.41242
-1.41533
-1.41724
-1.41819
-1.2151
-1.27276
-1.31731
-1.35418
-1.38517
-1.4109
-1.43239
-1.45044
-1.46563
-1.47843
-1.48922
-1.49828
-1.50584
-1.51207
-1.5171
-1.52102
-1.5239
-1.52579
-1.52673
-1.31864
-1.37851
-1.42527
-1.46323
-1.4946
-1.52052
-1.54207
-1.56011
-1.57523
-1.58795
-1.59864
-1.60761
-1.61507
-1.62122
-1.62617
-1.63003
-1.63286
-1.63472
-1.63564
-1.43682
-1.49372
-1.53923
-1.57631
-1.60694
-1.63229
-1.65339
-1.67104
-1.68586
-1.6983
-1.70877
-1.71754
-1.72484
-1.73084
-1.73568
-1.73945
-1.74222
-1.74403
-1.74493
-1.56623
-1.6168
-1.65856
-1.69319
-1.72205
-1.74613
-1.7663
-1.78323
-1.79748
-1.80948
-1.81958
-1.82806
-1.83512
-1.84094
-1.84563
-1.84928
-1.85196
-1.85372
-1.85459
-1.7038
-1.74606
-1.78243
-1.81339
-1.83966
-1.86189
-1.88069
-1.89659
-1.91005
-1.92144
-1.93106
-1.93916
-1.94592
-1.95149
-1.95599
-1.95949
-1.96207
-1.96376
-1.9646
-1.84696
-1.8799
-1.90988
-1.93637
-1.95943
-1.97933
-1.99642
-2.01103
-2.02351
-2.03414
-2.04317
-2.0508
-2.05719
-2.06247
-2.06674
-2.07008
-2.07253
-2.07414
-2.07495
-1.99362
-2.01689
-2.03997
-2.0615
-2.08095
-2.0982
-2.1133
-2.12642
-2.13776
-2.14751
-2.15585
-2.16294
-2.16891
-2.17386
-2.17788
-2.18102
-2.18333
-2.18486
-2.18562
-2.14202
-2.15572
-2.1718
-2.18817
-2.2038
-2.21819
-2.23113
-2.24262
-2.2527
-2.26147
-2.26905
-2.27555
-2.28105
-2.28563
-2.28936
-2.29229
-2.29445
-2.29588
-2.2966
-2.29058
-2.29524
-2.30453
-2.31579
-2.32755
-2.339
-2.3497
-2.35946
-2.36821
-2.37594
-2.38271
-2.38856
-2.39356
-2.39775
-2.40117
-2.40387
-2.40587
-2.4072
-2.40786
-2.43789
-2.43441
-2.4374
-2.44379
-2.4518
-2.46035
-2.46879
-2.4768
-2.48417
-2.49083
-2.49674
-2.50193
-2.50639
-2.51016
-2.51327
-2.51572
-2.51756
-2.51877
-2.51938
-2.58278
-2.57236
-2.56976
-2.57171
-2.57619
-2.58195
-2.5882
-2.59447
-2.60047
-2.60604
-2.61109
-2.61559
-2.61951
-2.62285
-2.62562
-2.62783
-2.62949
-2.63059
-2.63113
-2.7244
-2.7084
-2.7011
-2.69913
-2.70041
-2.70357
-2.70774
-2.71233
-2.71699
-2.72149
-2.72568
-2.72949
-2.73286
-2.73577
-2.7382
-2.74016
-2.74163
-2.74262
-2.7431
-2.86235
-2.84218
-2.83098
-2.82572
-2.82418
-2.825
-2.82724
-2.83025
-2.83363
-2.83709
-2.84044
-2.84357
-2.8464
-2.84888
-2.85098
-2.85268
-2.85397
-2.85483
-2.85526
-2.99644
-2.97343
-2.95928
-2.95123
-2.94729
-2.94605
-2.94655
-2.94811
-2.95029
-2.95276
-2.95531
-2.95779
-2.96009
-2.96214
-2.96391
-2.96536
-2.96647
-2.96721
-2.96758
-3.12682
-3.10208
-3.08579
-3.07558
-3.06961
-3.06658
-3.06554
-3.0658
-3.06687
-3.06843
-3.07023
-3.07208
-3.07387
-3.07552
-3.07697
-3.07817
-3.0791
-3.07973
-3.08004
-3.25381
-3.22819
-3.21046
-3.19862
-3.19104
-3.18651
-3.18412
-3.18323
-3.18332
-3.18404
-3.18513
-3.1864
-3.18772
-3.18898
-3.19012
-3.19109
-3.19185
-3.19237
-3.19263
-3.37777
-3.35193
-3.33333
-3.32033
-3.3115
-3.30576
-3.30225
-3.30034
-3.29956
-3.29953
-3.29998
-3.30072
-3.30159
-3.30249
-3.30335
-3.30409
-3.30469
-3.3051
-3.3053
-3.49903
-3.47345
-3.45447
-3.44071
-3.43097
-3.42427
-3.41984
-3.41709
-3.41554
-3.41485
-3.41474
-3.41499
-3.41546
-3.41603
-3.41661
-3.41715
-3.41759
-3.4179
-3.41806
-3.61791
-3.59297
-3.57397
-3.5598
-3.54943
-3.54202
-3.53687
-3.53342
-3.53124
-3.52998
-3.52936
-3.52919
-3.52929
-3.52956
-3.5299
-3.53025
-3.53055
-3.53077
-3.53088
-3.73471
-3.71067
-3.69195
-3.67765
-3.66692
-3.65901
-3.65331
-3.64932
-3.64662
-3.64487
-3.64383
-3.64328
-3.64306
-3.64306
-3.64319
-3.64336
-3.64353
-3.64367
-3.64374
-3.8497
-3.82674
-3.80853
-3.79435
-3.78346
-3.77526
-3.76918
-3.76477
-3.76165
-3.75952
-3.75811
-3.75724
-3.75675
-3.75652
-3.75645
-3.75648
-3.75653
-3.7566
-3.75663
-3.96311
-3.94137
-3.92385
-3.90996
-3.89912
-3.89078
-3.88446
-3.87976
-3.87634
-3.87389
-3.8722
-3.87107
-3.87035
-3.86992
-3.86969
-3.86958
-3.86954
-3.86953
-3.86953
-4.07516
-4.05473
-4.03802
-4.02459
-4.01393
-4.0056
-3.99918
-3.99431
-3.99067
-3.988
-3.98609
-3.98475
-3.98384
-3.98325
-3.98287
-3.98265
-3.98253
-3.98247
-3.98244
-4.18603
-4.16695
-4.15116
-4.1383
-4.12797
-4.11977
-4.11336
-4.10841
-4.10464
-4.10183
-4.09976
-4.09826
-4.09721
-4.09649
-4.096
-4.09569
-4.09549
-4.09539
-4.09533
-4.29588
-4.27819
-4.26339
-4.25119
-4.24128
-4.23333
-4.22702
-4.22209
-4.21828
-4.21538
-4.21321
-4.21161
-4.21046
-4.20964
-4.20907
-4.20868
-4.20843
-4.20829
-4.20821
-4.40486
-4.38855
-4.37479
-4.36333
-4.35393
-4.34631
-4.3402
-4.33536
-4.33158
-4.32867
-4.32646
-4.3248
-4.32358
-4.32269
-4.32206
-4.32162
-4.32133
-4.32116
-4.32107
-4.51307
-4.49815
-4.48545
-4.4748
-4.46598
-4.45876
-4.45292
-4.44826
-4.44457
-4.4417
-4.4395
-4.43782
-4.43657
-4.43564
-4.43498
-4.4345
-4.43419
-4.43399
-4.4339
-4.62063
-4.60708
-4.59548
-4.58567
-4.57748
-4.57073
-4.56523
-4.5608
-4.55727
-4.55449
-4.55234
-4.55068
-4.54943
-4.5485
-4.54782
-4.54733
-4.54699
-4.54679
-4.54669
-4.72761
-4.71543
-4.70493
-4.696
-4.6885
-4.68228
-4.67717
-4.67302
-4.6697
-4.66706
-4.66499
-4.6634
-4.66218
-4.66126
-4.66058
-4.66009
-4.65975
-4.65955
-4.65945
-4.83411
-4.82327
-4.81389
-4.80586
-4.79909
-4.79343
-4.78877
-4.78495
-4.78187
-4.77941
-4.77748
-4.77597
-4.77481
-4.77393
-4.77327
-4.77279
-4.77247
-4.77226
-4.77217
-4.94019
-4.93069
-4.92242
-4.91533
-4.90931
-4.90426
-4.90006
-4.89662
-4.89383
-4.89158
-4.8898
-4.88841
-4.88733
-4.88651
-4.88589
-4.88544
-4.88513
-4.88494
-4.88485
-5.04594
-5.03775
-5.0306
-5.02444
-5.0192
-5.01478
-5.0111
-5.00806
-5.00558
-5.00358
-5.00199
-5.00073
-4.99975
-4.99901
-4.99845
-4.99804
-4.99775
-4.99757
-4.99749
-5.1514
-5.14451
-5.13848
-5.13328
-5.12883
-5.12506
-5.12191
-5.11931
-5.11717
-5.11544
-5.11405
-5.11295
-5.1121
-5.11144
-5.11094
-5.11058
-5.11033
-5.11017
-5.1101
-5.25665
-5.25104
-5.24613
-5.24187
-5.23823
-5.23514
-5.23254
-5.23038
-5.22861
-5.22716
-5.226
-5.22509
-5.22437
-5.22381
-5.22339
-5.22309
-5.22288
-5.22274
-5.22268
-5.36174
-5.3574
-5.35359
-5.35029
-5.34746
-5.34505
-5.34302
-5.34133
-5.33993
-5.33879
-5.33788
-5.33715
-5.33658
-5.33614
-5.3358
-5.33556
-5.33539
-5.33528
-5.33524
-5.46671
-5.46363
-5.46092
-5.45858
-5.45656
-5.45483
-5.45338
-5.45217
-5.45116
-5.45034
-5.44968
-5.44915
-5.44874
-5.44842
-5.44818
-5.448
-5.44788
-5.4478
-5.44777
-5.57163
-5.5698
-5.56818
-5.56678
-5.56557
-5.56454
-5.56367
-5.56294
-5.56234
-5.56184
-5.56144
-5.56112
-5.56087
-5.56068
-5.56053
-5.56043
-5.56035
-5.5603
-5.56028
-5.67656
-5.67595
-5.67542
-5.67495
-5.67455
-5.67421
-5.67392
-5.67368
-5.67348
-5.67331
-5.67318
-5.67307
-5.67299
-5.67292
-5.67287
-5.67284
-5.67281
-5.6728
-5.67279
)
;

boundaryField
{
    leftWall
    {
        type            calculated;
        value           nonuniform List<scalar> 
50
(
1507.16
1335.69
1172.61
1018.92
875.705
743.815
623.799
515.635
439.066
386.607
337.166
290.507
246.386
204.363
164.356
127.03
90.6496
50.1878
16.2737
9.74867
1.35325
-3.9417
-3.99797
-4.02779
-4.06356
-4.10269
-4.1448
-4.1884
-4.23289
-4.28104
-4.33348
-4.38872
-4.44523
-4.50256
-4.56124
-4.62209
-4.68576
-4.75251
-4.82231
-4.89486
-4.96979
-5.04674
-5.12535
-5.20532
-5.2864
-5.36835
-5.45104
-5.53451
-5.61842
-5.70125
)
;
    }
    rightWall
    {
        type            calculated;
        value           nonuniform List<scalar> 
50
(
0.332656
0.152719
-0.028167
-0.210014
-0.392856
-0.576735
-0.761693
-0.947775
-1.09489
-1.20227
-1.31004
-1.41819
-1.52673
-1.63564
-1.74493
-1.85459
-1.9646
-2.07495
-2.18562
-2.2966
-2.40786
-2.51938
-2.63113
-2.7431
-2.85526
-2.96758
-3.08004
-3.19263
-3.3053
-3.41806
-3.53088
-3.64374
-3.75663
-3.86953
-3.98244
-4.09533
-4.20821
-4.32107
-4.4339
-4.54669
-4.65945
-4.77217
-4.88485
-4.99749
-5.1101
-5.22268
-5.33524
-5.44777
-5.56028
-5.67279
)
;
    }
    lowerWall
    {
        type            calculated;
        value           nonuniform List<scalar> 
62
(
1596.67
1592.53
1582.28
1566.48
1545.31
1518.55
1485.9
1447.09
1401.73
1349.39
1289.47
1221.42
1144.66
1057.47
960.243
853.426
730.056
582.611
422.417
298.025
215.492
193.021
204.14
201.608
91.3379
18.7989
2.57191
2.14297
2.17738
1.13924
-0.0620835
-2.2746
-1.54833
-1.22501
-1.02351
0.402748
0.224909
0.0482734
-0.12727
-0.301913
-0.47488
-0.652854
-0.877701
0.492264
0.49112
0.488748
0.485303
0.480949
0.475888
0.470336
0.464508
0.458605
0.452792
0.44722
0.442013
0.437274
0.433087
0.429515
0.426606
0.424397
0.422914
0.422172
)
;
    }
    atmosphere
    {
        type            calculated;
        value           nonuniform List<scalar> 
46
(
-5.74138
-5.74151
-5.74128
-5.74094
-5.7405
-5.73996
-5.73934
-5.73865
-5.7379
-5.7371
-5.73629
-5.73546
-5.73464
-5.73384
-5.73307
-5.73236
-5.73169
-5.7311
-5.73058
-5.73013
-5.72976
-5.72947
-5.72926
-5.72911
-5.72904
-5.72904
-5.72904
-5.72904
-5.72904
-5.72904
-5.72904
-5.72904
-5.72904
-5.72904
-5.72904
-5.72904
-5.72904
-5.72904
-5.72904
-5.72904
-5.72904
-5.72904
-5.72904
-5.72904
-5.72904
-5.72904
)
;
    }
    defaultFaces
    {
        type            empty;
    }
}


// ************************************************************************* //
