/*--------------------------------*- C++ -*----------------------------------*\
| =========                 |                                                 |
| \\      /  F ield         | OpenFOAM: The Open Source CFD Toolbox           |
|  \\    /   O peration     | Version:  2206                                  |
|   \\  /    A nd           | Website:  www.openfoam.com                      |
|    \\/     M anipulation  |                                                 |
\*---------------------------------------------------------------------------*/
FoamFile
{
    version     2.0;
    format      ascii;
    arch        "LSB;label=32;scalar=64";
    class       volScalarField;
    location    "0.075";
    object      p_rgh;
}
// * * * * * * * * * * * * * * * * * * * * * * * * * * * * * * * * * * * * * //

dimensions      [1 -1 -2 0 0 0 0];

internalField   nonuniform List<scalar> 
2268
(
1917.7
1916.87
1915
1912.2
1908.51
1903.97
1898.63
1892.56
1885.85
1878.58
1870.9
1862.94
1854.89
1846.96
1839.4
1832.38
1826.1
1820.74
1816.46
1813.29
1811.18
1809.97
1809.46
1918.18
1917.36
1915.48
1912.66
1908.95
1904.38
1899
1892.89
1886.11
1878.76
1870.98
1862.9
1854.7
1846.57
1838.71
1831.36
1824.79
1819.19
1814.72
1811.45
1809.33
1808.17
1807.72
1919.17
1918.34
1916.44
1913.59
1909.84
1905.21
1899.76
1893.54
1886.63
1879.13
1871.15
1862.83
1854.34
1845.87
1837.62
1829.83
1822.73
1816.55
1811.46
1807.59
1804.95
1803.42
1802.78
1920.65
1919.83
1917.9
1915
1911.18
1906.46
1900.88
1894.51
1887.41
1879.67
1871.4
1862.73
1853.81
1844.83
1835.98
1827.49
1819.57
1812.47
1806.38
1801.48
1797.83
1795.44
1794.32
1922.65
1921.81
1919.84
1916.88
1912.96
1908.12
1902.39
1895.81
1888.46
1880.41
1871.75
1862.61
1853.12
1843.45
1833.77
1824.3
1815.22
1806.76
1799.14
1792.56
1787.17
1783.11
1780.8
1925.15
1924.31
1922.28
1919.24
1915.21
1910.21
1904.28
1897.46
1889.8
1881.36
1872.23
1862.5
1852.29
1841.75
1831.02
1820.29
1809.63
1799.28
1789.41
1780.19
1771.8
1764.52
1759.29
1928.16
1927.3
1925.21
1922.07
1917.91
1912.74
1906.58
1899.46
1891.44
1882.55
1872.86
1862.45
1851.4
1839.8
1827.77
1815.38
1802.79
1789.87
1776.75
1763.35
1749.39
1734.48
1718.98
1931.67
1930.78
1928.63
1925.37
1921.06
1915.69
1909.27
1901.83
1893.4
1884.01
1873.7
1862.51
1850.49
1837.69
1824.15
1809.9
1794.91
1778.69
1761.23
1741.89
1719.36
1693.27
1645.44
0.815965
1.18092
1.54269
1.69546
1.67978
1.59813
1.50253
1.41077
1.32858
1.2575
1.19694
1.14616
1.10408
1.06954
1.04179
1.02028
1.00455
0.994189
0.989028
0.785096
1.17142
1.55967
1.71086
1.68645
1.59982
1.50218
1.40975
1.32734
1.2563
1.19592
1.14527
1.10325
1.06877
1.0411
1.01966
1.00395
0.993613
0.988457
0.720643
1.14998
1.59588
1.7427
1.69986
1.60316
1.5014
1.40747
1.32477
1.25387
1.19376
1.14334
1.1015
1.06718
1.03967
1.01835
1.00271
0.992408
0.987272
0.614715
1.11392
1.65487
1.79226
1.71903
1.60729
1.49982
1.40387
1.32089
1.25021
1.19045
1.14038
1.09885
1.06481
1.03752
1.01635
1.00082
0.990578
0.985478
0.453587
1.0566
1.74486
1.86155
1.74249
1.61124
1.49703
1.39884
1.31562
1.24526
1.18599
1.13641
1.09532
1.06165
1.03463
1.01367
0.998271
0.988125
0.983075
0.230036
0.955977
1.89396
1.95642
1.76757
1.61376
1.49245
1.39214
1.30883
1.23898
1.18038
1.13145
1.09091
1.05769
1.03101
1.0103
0.995081
0.985054
0.980066
0.0144392
1.81517
2.50354
2.1146
1.79148
1.61326
1.48536
1.38349
1.30043
1.23135
1.17363
1.12551
1.08564
1.05295
1.02667
1.00625
0.99125
0.981369
0.976454
2.51651
4.8015
4.44723
2.14787
1.81015
1.60791
1.475
1.37261
1.29034
1.22238
1.16577
1.1186
1.07952
1.04743
1.02161
1.00153
0.986785
0.977074
0.972245
1938
1937.05
1934.77
1931.33
1926.75
1921.02
1914.15
1906.15
1897
1886.72
1875.3
1862.73
1848.98
1833.99
1817.66
1799.79
1779.99
1757.74
1731.11
1696.5
1645.87
1564.3
1388.79
1949.16
1948.13
1945.66
1941.91
1936.91
1930.63
1923.04
1914.12
1903.83
1892.12
1878.93
1864.14
1847.62
1829.16
1808.44
1785
1758.09
1726.56
1688.52
1641.94
1581.7
1501.69
1405.2
1963.21
1962.07
1959.4
1955.35
1949.92
1943.08
1934.76
1924.93
1913.5
1900.39
1885.46
1868.56
1849.46
1827.87
1803.39
1775.5
1743.47
1706.39
1662.9
1611.65
1550.11
1475.33
1390
1980.44
1979.2
1976.35
1972.03
1966.22
1958.87
1949.91
1939.27
1926.85
1912.51
1896.11
1877.42
1856.2
1832.1
1804.7
1773.45
1737.66
1696.48
1648.71
1593.29
1527.79
1451.23
1364.42
2001.22
1999.88
1996.89
1992.36
1986.26
1978.53
1969.09
1957.84
1944.69
1929.47
1912.01
1892.09
1869.44
1843.7
1814.46
1781.2
1743.27
1699.93
1650.09
1592.9
1525.99
1449.56
1361.7
2025.88
2024.46
2021.39
2016.75
2010.48
2002.53
1992.82
1981.25
1967.7
1952.04
1934.07
1913.58
1890.31
1863.94
1834.08
1800.28
1761.99
1718.57
1669.14
1613.08
1548.28
1475.86
1392.11
2054.69
2053.21
2050.13
2045.48
2039.2
2031.23
2021.5
2009.91
1996.37
1980.72
1962.81
1942.44
1919.38
1893.35
1864.04
1831.08
1794.03
1752.41
1705.58
1653.2
1593.57
1528.63
1453.82
2087.83
2086.33
2083.32
2078.78
2072.64
2064.86
2055.37
2044.08
2030.91
2015.74
1998.42
1978.79
1956.67
1931.82
1904.02
1872.98
1838.39
1799.94
1757.19
1710.04
1657.2
1601.09
1536.75
2125.42
2123.93
2121.05
2116.72
2110.88
2103.48
2094.47
2083.77
2071.32
2057.01
2040.73
2022.36
2001.75
1978.74
1953.14
1924.78
1893.46
1858.97
1821.07
1779.8
1734.16
1686.72
1632.22
2167.45
2166.03
2163.35
2159.32
2153.9
2147.04
2138.7
2128.83
2117.37
2104.23
2089.35
2072.61
2053.93
2033.19
2010.27
1985.06
1957.42
1927.26
1894.43
1859.05
1820.32
1780.77
1734.9
2213.69
2212.38
2209.97
2206.32
2201.42
2195.23
2187.72
2178.85
2168.57
2156.83
2143.57
2128.74
2112.26
2094.05
2074.07
2052.22
2028.45
2002.7
1974.88
1945.12
1912.77
1880.19
1841.87
2263.76
2262.55
2260.45
2257.26
2252.96
2247.53
2240.95
2233.19
2224.23
2214.02
2202.53
2189.74
2175.59
2160.04
2143.07
2124.63
2104.69
2083.25
2060.25
2035.82
2009.44
1983.15
1951.72
2317.71
2316.59
2314.79
2312.06
2308.39
2303.77
2298.17
2291.58
2283.99
2275.37
2265.73
2255.03
2243.26
2230.39
2216.42
2201.33
2185.1
2167.75
2149.28
2129.78
2108.88
2088.27
2063.19
2375.46
2374.36
2372.81
2370.52
2367.47
2363.64
2359.02
2353.61
2347.39
2340.37
2332.53
2323.87
2314.4
2304.11
2293.01
2281.11
2268.4
2254.93
2240.68
2225.72
2209.73
2193.87
2174.23
2431.48
2430.49
2429.3
2427.45
2424.98
2421.87
2418.14
2413.76
2408.75
2403.11
2396.84
2389.94
2382.44
2374.33
2365.65
2356.42
2346.71
2336.57
2326.06
2315.32
2303.83
2292.39
2278.24
2480.09
2479.07
2478.26
2476.8
2474.83
2472.33
2469.32
2465.79
2461.76
2457.22
2452.2
2446.7
2440.74
2434.34
2427.53
2420.35
2412.81
2405.02
2397.05
2389.13
2379.85
2371.17
2359.11
2483.54
2481.05
2479.32
2476.53
2472.55
2467.47
2461.22
2453.77
2445.05
2435
2423.55
2410.61
2396.07
2379.93
2360.61
2338.91
2313.56
2284.74
2252.2
2208.71
2109.47
2015.02
1786.15
1262.45
1255.5
1248.74
1239.55
1226.5
1210.22
1189.47
1163.97
1135.17
1103.49
1069.01
1031.83
992.058
950.149
907.311
862.844
818.284
773.918
726.964
670.136
547.136
445.065
254.175
5.77377
5.22429
4.02437
2.81784
1.09825
-0.967948
-0.976135
-0.981037
-0.985922
-0.991525
-0.998276
-1.00805
-1.01682
-1.02835
-1.04176
-1.05943
-1.08369
-1.11718
-1.17483
-1.2755
-1.34751
-1.38382
-1.47718
-0.916403
-0.915572
-0.918616
-0.921577
-0.924201
-0.926769
-0.930454
-0.934872
-0.939995
-0.945834
-0.952485
-0.960118
-0.968962
-0.979283
-0.991405
-1.00581
-1.02264
-1.04307
-1.07182
-1.1111
-1.15275
-1.20148
-1.33267
-0.83742
-0.838234
-0.839732
-0.84132
-0.843302
-0.845758
-0.848415
-0.851214
-0.854363
-0.858077
-0.86249
-0.86767
-0.873656
-0.880502
-0.888241
-0.896621
-0.905322
-0.915731
-0.930027
-0.944421
-0.952854
-0.976101
-1.06616
-0.775448
-0.775398
-0.774829
-0.774117
-0.773895
-0.774129
-0.774567
-0.775012
-0.775527
-0.776301
-0.777481
-0.779138
-0.781302
-0.783977
-0.787086
-0.790356
-0.793579
-0.797292
-0.801705
-0.80432
-0.803693
-0.81066
-0.8468
-0.718702
-0.718353
-0.717877
-0.717634
-0.717273
-0.716586
-0.715766
-0.715
-0.714352
-0.713832
-0.713408
-0.713017
-0.71259
-0.712064
-0.711335
-0.710274
-0.708876
-0.707215
-0.704719
-0.699956
-0.693327
-0.690674
-0.698643
-0.659905
-0.659348
-0.659061
-0.658928
-0.658408
-0.657402
-0.65604
-0.654552
-0.653054
-0.651526
-0.649875
-0.647984
-0.645735
-0.643007
-0.63964
-0.635476
-0.630487
-0.624723
-0.617907
-0.60936
-0.599304
-0.590314
-0.584466
-0.602744
-0.602672
-0.602434
-0.601574
-0.600255
-0.598781
-0.597185
-0.595414
-0.593429
-0.591176
-0.588582
-0.585572
-0.582067
-0.577963
-0.573112
-0.567388
-0.560766
-0.553281
-0.54479
-0.534878
-0.523494
-0.511733
-0.50029
-0.548527
-0.54852
-0.547946
-0.546737
-0.545199
-0.543475
-0.541603
-0.539493
-0.537051
-0.534215
-0.530935
-0.527173
-0.522898
-0.518051
-0.512515
-0.506151
-0.498871
-0.490644
-0.481388
-0.470874
-0.459022
-0.446418
-0.433445
-0.498324
-0.497735
-0.496607
-0.495398
-0.494116
-0.492543
-0.490573
-0.488189
-0.485373
-0.482112
-0.478404
-0.474244
-0.469615
-0.464462
-0.458679
-0.452121
-0.444661
-0.436243
-0.42684
-0.416367
-0.404796
-0.392466
-0.379599
-0.450931
-0.450221
-0.449297
-0.448307
-0.447056
-0.445448
-0.443395
-0.440898
-0.437969
-0.434597
-0.430768
-0.42647
-0.421691
-0.4164
-0.410533
-0.403994
-0.396685
-0.388544
-0.379537
-0.36962
-0.358779
-0.347217
-0.335081
-0.406555
-0.406126
-0.405615
-0.404756
-0.403389
-0.401602
-0.399469
-0.396998
-0.394179
-0.39098
-0.387352
-0.383244
-0.37862
-0.373464
-0.367758
-0.361465
-0.354526
-0.346887
-0.338502
-0.329319
-0.319313
-0.308608
-0.297341
-0.366485
-0.366332
-0.365744
-0.364624
-0.363114
-0.361288
-0.359223
-0.356919
-0.354339
-0.351429
-0.348127
-0.344367
-0.340096
-0.335284
-0.329914
-0.323975
-0.317444
-0.310292
-0.302485
-0.29398
-0.284752
-0.274891
-0.26453
-0.330188
-0.329952
-0.329141
-0.327924
-0.326494
-0.324883
-0.323055
-0.320979
-0.318616
-0.315921
-0.312841
-0.309328
-0.305339
-0.30084
-0.295812
-0.290244
-0.284124
-0.277441
-0.270183
-0.262326
-0.253858
-0.244845
-0.235403
-0.296423
-0.295888
-0.29507
-0.294138
-0.293034
-0.291729
-0.29015
-0.288258
-0.286027
-0.283433
-0.280454
-0.277073
-0.273272
-0.269035
-0.264344
-0.259182
-0.253535
-0.247389
-0.240736
-0.233566
-0.225873
-0.217702
-0.209146
-0.26424
-0.263753
-0.263214
-0.262615
-0.261809
-0.260708
-0.259282
-0.257511
-0.255385
-0.252904
-0.250071
-0.246884
-0.243337
-0.239419
-0.235118
-0.230415
-0.225291
-0.219729
-0.213714
-0.207236
-0.200288
-0.192898
-0.18515
-0.233994
-0.233895
-0.233675
-0.233213
-0.232473
-0.231414
-0.230045
-0.228369
-0.226384
-0.224096
-0.221509
-0.218618
-0.215412
-0.211877
-0.207998
-0.203758
-0.199139
-0.194122
-0.188695
-0.182846
-0.176568
-0.169885
-0.162882
-0.206134
-0.206227
-0.206059
-0.205556
-0.204751
-0.203685
-0.202372
-0.200814
-0.199012
-0.196959
-0.194649
-0.192068
-0.189199
-0.186026
-0.182536
-0.17871
-0.174536
-0.169999
-0.165094
-0.159816
-0.154164
-0.148161
-0.141894
-0.179879
-0.179805
-0.179463
-0.178862
-0.178037
-0.177027
-0.175827
-0.174431
-0.172831
-0.171013
-0.168959
-0.166652
-0.164076
-0.16122
-0.158071
-0.154619
-0.150857
-0.14678
-0.142386
-0.137681
-0.13267
-0.127379
-0.121879
-0.153813
-0.153518
-0.153054
-0.152457
-0.151738
-0.150883
-0.149869
-0.148679
-0.147297
-0.145704
-0.143887
-0.141832
-0.139532
-0.136978
-0.134167
-0.131094
-0.127761
-0.124169
-0.120325
-0.116236
-0.111911
-0.107372
-0.102671
-0.127561
-0.127249
-0.126843
-0.126392
-0.125859
-0.125202
-0.124397
-0.12342
-0.122253
-0.120879
-0.119294
-0.117496
-0.115483
-0.113254
-0.110808
-0.108148
-0.105279
-0.10221
-0.0989497
-0.095506
-0.0918873
-0.0881085
-0.0841989
-0.102056
-0.101882
-0.10164
-0.101361
-0.100983
-0.100474
-0.0998169
-0.0989973
-0.0980028
-0.0968272
-0.0954698
-0.0939315
-0.0922129
-0.0903152
-0.0882423
-0.0860015
-0.0836032
-0.0810575
-0.0783737
-0.0755588
-0.0726187
-0.0695627
-0.0664051
-0.0785377
-0.0784889
-0.0783676
-0.078163
-0.0778419
-0.0773878
-0.0767912
-0.0760475
-0.0751569
-0.0741219
-0.0729438
-0.0716223
-0.0701573
-0.0685515
-0.0668124
-0.0649513
-0.0629806
-0.0609109
-0.0587498
-0.0565024
-0.0541728
-0.0517668
-0.0492915
-0.0567059
-0.0566919
-0.0565723
-0.0563388
-0.0559835
-0.0555064
-0.054908
-0.0541913
-0.0533619
-0.0524247
-0.0513827
-0.050237
-0.0489899
-0.0476462
-0.0462142
-0.0447045
-0.0431278
-0.0414933
-0.0398077
-0.0380762
-0.0363034
-0.0344943
-0.0326536
-0.0326296
-0.0327086
-0.0325566
-0.0322753
-0.031884
-0.0313975
-0.0308276
-0.0301836
-0.0294722
-0.0286983
-0.0278652
-0.0269764
-0.0260366
-0.025052
-0.0240295
-0.0229763
-0.021899
-0.0208036
-0.0196952
-0.0185788
-0.0174595
-0.0163428
-0.0152348
806.215
747.138
433.315
67.4279
1110.91
661.444
208.892
22.4594
1132.72
352.151
28.3692
9.52516
1039.26
172.163
12.8126
3.8241
903.636
77.8394
5.47505
1.70602
787.302
30.9718
2.34431
1.04011
709.524
11.0197
1.06616
0.82476
650.162
3.85523
0.685227
0.723731
593.932
2.45132
0.622567
0.65056
537.489
1.4302
0.605573
0.58045
479.655
0.559994
0.578694
0.509689
419.183
0.0871205
0.44867
0.440162
349.21
-0.0700713
0.359224
0.381419
267.102
0.00180468
0.298009
0.334362
208.015
0.209015
0.255221
0.294332
202.069
0.425748
0.212904
0.254851
252.919
0.618571
0.163915
0.200112
136.439
6.36733
0.0219551
0.113858
-1.9882
8.89446
0.203756
-0.0069841
-1.77483
4.87443
-0.222948
-0.109697
-1.31762
-0.716634
-0.361576
-0.157445
-0.929025
-0.697871
-0.373676
-0.157335
-0.697654
-0.514567
-0.294926
-0.145099
-0.556039
-0.418217
-0.2575
-0.135879
-0.46306
-0.351512
-0.231163
-0.127732
-0.396362
-0.304154
-0.207513
-0.119186
-0.345102
-0.267667
-0.187026
-0.110771
-0.303747
-0.237739
-0.16896
-0.102626
-0.269062
-0.212133
-0.152724
-0.0946985
-0.239074
-0.189562
-0.137864
-0.0869461
-0.212544
-0.169249
-0.124076
-0.0793379
-0.188635
-0.150676
-0.111141
-0.0718289
-0.166744
-0.133461
-0.0989007
-0.0644807
-0.146414
-0.117322
-0.0872284
-0.0572493
-0.127301
-0.102052
-0.0760344
-0.0501371
-0.109164
-0.0874958
-0.065251
-0.0431479
-0.0918355
-0.0735363
-0.0548219
-0.0362831
-0.0751959
-0.06008
-0.0446995
-0.0295436
-0.0591425
-0.0470447
-0.0348398
-0.022924
-0.0436333
-0.0343815
-0.0252106
-0.0164205
-0.0285041
-0.021988
-0.0157605
-0.0100235
-0.012811
-0.00928234
-0.00618817
-0.00362801
10.4528
5.11388
3.02557
2.2239
1.80885
1.58861
1.45272
1.35183
1.27188
1.20628
1.15176
1.10633
1.06862
1.03762
1.01264
0.993175
0.978874
0.969462
0.964784
7.94434
3.97765
2.37706
1.92111
1.67579
1.51655
1.40194
1.31189
1.23892
1.17846
1.12791
1.08557
1.05024
1.02109
0.997525
0.979124
0.965584
0.956667
0.952237
4.03364
2.37553
1.79123
1.61272
1.51746
1.4218
1.33605
1.26193
1.1988
1.14514
1.09957
1.06096
1.02847
1.00149
0.979596
0.962442
0.949789
0.941439
0.937293
1.56794
1.25475
1.32553
1.38295
1.36907
1.32044
1.26222
1.20514
1.15317
1.10729
1.06736
1.03295
1.00364
0.979109
0.95908
0.94332
0.931659
0.923938
0.920101
0.981687
0.996265
1.13275
1.22159
1.24151
1.22241
1.18615
1.14467
1.10381
1.06598
1.03199
1.00204
0.976149
0.954251
0.936233
0.92197
0.911374
0.904335
0.900829
0.855291
0.914686
1.02625
1.10299
1.13345
1.13142
1.11128
1.08297
1.0523
1.02224
0.994178
0.968777
0.946407
0.927244
0.911324
0.898626
0.889139
0.882817
0.879659
0.798429
0.85955
0.943494
1.00704
1.04007
1.04791
1.03931
1.02165
0.999904
0.977015
0.95462
0.933687
0.914835
0.898426
0.88463
0.873527
0.865172
0.859584
0.856784
0.745792
0.803406
0.870263
0.924253
0.957332
0.971157
0.970892
0.961701
0.947545
0.931062
0.913927
0.89726
0.88183
0.868127
0.856434
0.84692
0.839698
0.834846
0.832409
0.692034
0.745567
0.802148
0.849797
0.882423
0.900201
0.906104
0.903642
0.895851
0.884979
0.872619
0.859932
0.847757
0.836661
0.827011
0.819049
0.812942
0.808815
0.806739
0.634867
0.686225
0.737171
0.781026
0.813462
0.834149
0.844776
0.847702
0.845222
0.839211
0.831119
0.822081
0.812947
0.804322
0.796625
0.790156
0.785129
0.781708
0.779985
0.574539
0.626138
0.674599
0.71653
0.749227
0.772278
0.786649
0.793942
0.795899
0.794073
0.789761
0.784027
0.777696
0.771379
0.765526
0.760473
0.756476
0.753732
0.752351
0.513891
0.566708
0.614364
0.655593
0.688935
0.714034
0.731457
0.742338
0.748019
0.749794
0.748808
0.74604
0.742264
0.738078
0.733941
0.730216
0.727191
0.725091
0.724036
0.45632
0.509249
0.556585
0.597811
0.632051
0.658983
0.678961
0.692832
0.701661
0.706538
0.708473
0.708348
0.706879
0.704636
0.702079
0.699585
0.697469
0.695976
0.695229
0.403001
0.454249
0.501244
0.542866
0.578172
0.606795
0.628966
0.645367
0.656878
0.664436
0.668926
0.671142
0.671735
0.671245
0.670125
0.668765
0.667493
0.666566
0.666109
0.352587
0.401136
0.448069
0.49048
0.527
0.557229
0.58133
0.599905
0.613716
0.623592
0.630308
0.634579
0.636995
0.63807
0.638248
0.637922
0.637428
0.637026
0.636837
0.300529
0.348524
0.396577
0.440336
0.47832
0.510131
0.535964
0.556432
0.572216
0.584093
0.592729
0.598786
0.602798
0.605256
0.606595
0.607207
0.607424
0.607505
0.60756
0.243741
0.295383
0.346441
0.392336
0.432019
0.465392
0.492833
0.514959
0.532418
0.546014
0.556273
0.563866
0.569259
0.572928
0.5753
0.576754
0.577616
0.578133
0.578409
0.179367
0.241494
0.297781
0.346571
0.388139
0.423026
0.451891
0.47544
0.494385
0.509428
0.520998
0.529908
0.536475
0.541197
0.544478
0.54668
0.548116
0.549024
0.549498
0.109852
0.188511
0.251411
0.303433
0.346879
0.383128
0.413195
0.43793
0.458068
0.474262
0.487035
0.496997
0.50453
0.510156
0.51423
0.517083
0.519024
0.520274
0.520924
0.0481175
0.140123
0.208788
0.263558
0.308531
0.345839
0.376826
0.402467
0.423517
0.440619
0.454311
0.465128
0.473507
0.479893
0.484642
0.488043
0.490418
0.491964
0.492771
0.00534744
0.100161
0.171446
0.227595
0.273389
0.311298
0.34285
0.36908
0.390756
0.408511
0.422886
0.43438
0.443431
0.450442
0.455746
0.459633
0.462375
0.464164
0.465104
-0.0192966
0.0702196
0.140188
0.195943
0.241637
0.279587
0.311293
0.337774
0.359789
0.377952
0.392794
0.40479
0.414355
0.421857
0.427611
0.43189
0.434935
0.436925
0.43797
-0.0321138
0.0488256
0.114732
0.168588
0.213286
0.250697
0.282134
0.308531
0.330606
0.348945
0.364057
0.376384
0.386312
0.394177
0.400273
0.404854
0.408136
0.410286
0.411409
-0.0395431
0.0331251
0.0940929
0.145153
0.188167
0.224528
0.255302
0.281304
0.303182
0.321482
0.336676
0.34917
0.359316
0.367421
0.373754
0.378551
0.382007
0.384274
0.38545
-0.0441097
0.0212356
0.0772649
0.125117
0.165995
0.200908
0.23069
0.256021
0.277473
0.295536
0.310638
0.323143
0.333369
0.341595
0.348065
0.352994
0.356563
0.358906
0.360113
-0.0463253
0.0122906
0.063515
0.107984
0.146453
0.179633
0.208161
0.232592
0.253417
0.271066
0.285913
0.298283
0.308458
0.31669
0.323201
0.328186
0.331807
0.334187
0.335403
-0.0468496
0.00564945
0.0522782
0.093324
0.129231
0.160484
0.187561
0.210909
0.230936
0.24801
0.262455
0.274553
0.284556
0.292688
0.29915
0.304116
0.307733
0.310113
0.311321
-0.046228
0.000781329
0.0430857
0.0807572
0.114035
0.143242
0.168728
0.190846
0.209933
0.226293
0.240203
0.251907
0.261626
0.26956
0.275888
0.280767
0.284329
0.286674
0.287858
-0.0447745
-0.00270245
0.0355595
0.0699572
0.1006
0.127693
0.151493
0.172271
0.190298
0.205826
0.219084
0.230285
0.23962
0.247267
0.253384
0.258113
0.261573
0.263854
0.265
-0.0426948
-0.00509097
0.0293959
0.0606445
0.0886829
0.113636
0.135686
0.155041
0.171914
0.186508
0.199015
0.209617
0.218481
0.225761
0.2316
0.236125
0.239441
0.241631
0.242727
-0.0401374
-0.00660901
0.024347
0.0525786
0.0780655
0.100878
0.121141
0.139012
0.154654
0.168233
0.179907
0.189829
0.198144
0.20499
0.210493
0.214766
0.217904
0.21998
0.221017
-0.0372145
-0.00743536
0.0202072
0.0455517
0.0685506
0.0892365
0.107694
0.124037
0.138392
0.150891
0.161664
0.170839
0.178544
0.184898
0.190016
0.193999
0.196931
0.198874
0.199843
-0.0340254
-0.00771647
0.0168041
0.0393832
0.0599607
0.0785448
0.09519
0.109978
0.123004
0.134372
0.14419
0.152565
0.159607
0.165426
0.170121
0.173783
0.176485
0.17828
0.179174
-0.0306379
-0.00757169
0.0139918
0.0339154
0.0521364
0.0686483
0.0834836
0.0966993
0.108367
0.118568
0.127389
0.134923
0.141266
0.146514
0.150758
0.154075
0.156528
0.158162
0.158975
-0.0271103
-0.00710017
0.0116458
0.0290106
0.0449355
0.0594063
0.0724404
0.0840764
0.0943665
0.103373
0.111169
0.117832
0.123449
0.128104
0.131875
0.134829
0.137018
0.138481
0.139207
-0.0234918
-0.00638502
0.00965966
0.0245487
0.0382319
0.0506923
0.0619374
0.071992
0.0808932
0.0886896
0.0954409
0.101216
0.10609
0.110135
0.113419
0.115997
0.117911
0.119194
0.119828
-0.0198146
-0.00549646
0.00794167
0.0204247
0.0319135
0.0423923
0.0518625
0.0603386
0.0678469
0.0744254
0.0801238
0.0850018
0.0891232
0.09255
0.0953367
0.0975281
0.0991585
0.100254
0.100793
-0.0161379
-0.00449833
0.00641137
0.0165458
0.0258806
0.0344039
0.042114
0.0490187
0.0551361
0.0604964
0.065141
0.0691197
0.0724854
0.0752882
0.0775711
0.079369
0.0807089
0.0816118
0.0820528
-0.0124714
-0.00344129
0.00499753
0.0128287
0.0200433
0.0266347
0.0326001
0.0379435
0.0426776
0.0468257
0.050421
0.0535032
0.0561135
0.0582901
0.0600652
0.061465
0.0625099
0.0632163
0.0635575
-0.00884245
-0.00237356
0.00363377
0.0091962
0.0143189
0.019
0.0232375
0.027033
0.0303953
0.0333414
0.0358957
0.0380871
0.0399446
0.0414951
0.0427608
0.04376
0.044507
0.0450145
0.0452552
-0.00527379
-0.0013434
0.00225465
0.00557498
0.0086307
0.011423
0.0139507
0.0162145
0.0182196
0.0199764
0.0215
0.0228077
0.0239169
0.0248434
0.0256002
0.0261982
0.026646
0.0269528
0.027094
-0.00177034
-0.000411217
0.000783521
0.00188395
0.00289625
0.00382141
0.00465898
0.00540903
0.00607316
0.00665487
0.00715921
0.00759205
0.00795925
0.00826605
0.00851686
0.00871525
0.00886418
0.00896789
0.00901454
)
;

boundaryField
{
    leftWall
    {
        type            fixedFluxPressure;
        gradient        uniform 0;
        value           nonuniform List<scalar> 
50
(
1917.7
1918.18
1919.17
1920.65
1922.65
1925.15
1928.16
1931.67
1938
1949.16
1963.21
1980.44
2001.22
2025.88
2054.69
2087.83
2125.42
2167.45
2213.69
2263.76
2317.71
2375.46
2431.48
2480.09
2483.54
1262.45
5.77377
-0.916403
-0.83742
-0.775448
-0.718702
-0.659905
-0.602744
-0.548527
-0.498324
-0.450931
-0.406555
-0.366485
-0.330188
-0.296423
-0.26424
-0.233994
-0.206134
-0.179879
-0.153813
-0.127561
-0.102056
-0.0785377
-0.0567059
-0.0326296
)
;
    }
    rightWall
    {
        type            fixedFluxPressure;
        gradient        uniform 0;
        value           nonuniform List<scalar> 
50
(
0.989028
0.988457
0.987272
0.985478
0.983075
0.980066
0.976454
0.972245
0.964784
0.952237
0.937293
0.920101
0.900829
0.879659
0.856784
0.832409
0.806739
0.779985
0.752351
0.724036
0.695229
0.666109
0.636837
0.60756
0.578409
0.549498
0.520924
0.492771
0.465104
0.43797
0.411409
0.38545
0.360113
0.335403
0.311321
0.287858
0.265
0.242727
0.221017
0.199843
0.179174
0.158975
0.139207
0.119828
0.100793
0.0820528
0.0635575
0.0452552
0.027094
0.00901454
)
;
    }
    lowerWall
    {
        type            fixedFluxPressure;
        gradient        uniform 0;
        value           nonuniform List<scalar> 
62
(
1917.7
1916.87
1915
1912.2
1908.51
1903.97
1898.63
1892.56
1885.85
1878.58
1870.9
1862.94
1854.89
1846.96
1839.4
1832.38
1826.1
1820.74
1816.46
1813.29
1811.18
1809.97
1809.46
1809.46
1807.72
1802.78
1794.32
1780.8
1759.29
1718.98
1645.44
806.215
747.138
433.315
67.4279
0.815965
0.785096
0.720643
0.614715
0.453587
0.230036
0.0144392
2.51651
0.815965
1.18092
1.54269
1.69546
1.67978
1.59813
1.50253
1.41077
1.32858
1.2575
1.19694
1.14616
1.10408
1.06954
1.04179
1.02028
1.00455
0.994189
0.989028
)
;
    }
    atmosphere
    {
        type            totalPressure;
        rho             rho;
        psi             none;
        gamma           1;
        p0              uniform 0;
        value           nonuniform List<scalar> 
46
(
-0.0179242
-0.0184528
-0.0182146
-0.0178806
-0.0174741
-0.0170084
-0.0164935
-0.0159372
-0.0153457
-0.0147242
-0.0140768
-0.0134075
-0.0127196
-0.0120166
-0.0113021
-0.0105799
-0.00985423
-0.00912961
-0.00841084
-0.00770272
-0.0070099
-0.00633679
-0.00568708
-0.00434959
-0.00256751
-0.00123185
-0.000386484
-3.52058e-05
0
0
0
0
0
0
0
0
0
0
0
0
0
0
0
0
0
0
)
;
    }
    defaultFaces
    {
        type            empty;
    }
}


// ************************************************************************* //
