/*--------------------------------*- C++ -*----------------------------------*\
| =========                 |                                                 |
| \\      /  F ield         | OpenFOAM: The Open Source CFD Toolbox           |
|  \\    /   O peration     | Version:  2206                                  |
|   \\  /    A nd           | Website:  www.openfoam.com                      |
|    \\/     M anipulation  |                                                 |
\*---------------------------------------------------------------------------*/
FoamFile
{
    version     2.0;
    format      ascii;
    arch        "LSB;label=32;scalar=64";
    class       surfaceScalarField;
    location    "0.425";
    object      alphaPhi0.water;
}
// * * * * * * * * * * * * * * * * * * * * * * * * * * * * * * * * * * * * * //

dimensions      [0 3 -1 0 0 0 0];

oriented        oriented;

internalField   nonuniform List<scalar> 
4432
(
-3.58918e-06
3.58918e-06
-3.35985e-06
-2.29327e-07
7.71957e-07
-4.13181e-06
6.84702e-06
-6.07506e-06
1.3309e-05
-6.46201e-06
1.90583e-05
-5.74929e-06
2.36457e-05
-4.58738e-06
2.70594e-05
-3.41372e-06
2.9481e-05
-2.42162e-06
3.1131e-05
-1.65e-06
3.21893e-05
-1.05829e-06
3.27543e-05
-5.64989e-07
3.27849e-05
-3.05503e-08
3.20352e-05
7.497e-07
3.01098e-05
1.92538e-06
2.64246e-05
3.68523e-06
2.02395e-05
6.18501e-06
1.12842e-05
8.95532e-06
1.43199e-06
9.85223e-06
-6.00158e-06
8.15901e-06
-1.42294e-05
7.59346e-06
-1.63768e-05
2.00039e-07
-1.6386e-05
-3.69631e-06
7.28549e-06
-3.09998e-06
-8.25658e-07
1.09528e-06
-8.32708e-06
7.1974e-06
-1.21772e-05
1.3612e-05
-1.28766e-05
1.92875e-05
-1.14248e-05
2.3804e-05
-9.10388e-06
2.71715e-05
-6.78125e-06
2.95861e-05
-4.83624e-06
3.12695e-05
-3.33338e-06
3.23951e-05
-2.18384e-06
3.3068e-05
-1.23789e-06
3.3391e-05
-3.53529e-07
3.34693e-05
6.7138e-07
3.33525e-05
2.04211e-06
3.28495e-05
4.18832e-06
3.12357e-05
7.79878e-06
2.6755e-05
1.3436e-05
1.72218e-05
1.93855e-05
3.07081e-06
2.25681e-05
-7.97135e-06
1.80013e-05
-8.93463e-06
6.00306e-07
-2.53295e-05
-3.33925e-06
1.06247e-05
-2.60542e-06
-1.55949e-06
1.65667e-06
-1.25892e-05
7.71144e-06
-1.8232e-05
1.39706e-05
-1.91358e-05
1.94404e-05
-1.68946e-05
2.37582e-05
-1.34216e-05
2.69798e-05
-1.00028e-05
2.93241e-05
-7.18055e-06
3.1012e-05
-5.02133e-06
3.22027e-05
-3.37453e-06
3.29823e-05
-2.01743e-06
3.33551e-05
-7.2639e-07
3.3308e-05
7.18518e-07
3.28222e-05
2.5279e-06
3.20279e-05
4.98263e-06
3.12706e-05
8.55607e-06
3.0455e-05
1.42516e-05
2.73808e-05
2.24596e-05
1.92984e-05
3.06505e-05
8.56637e-06
3.09696e-05
2.47651e-06
7.26827e-06
-2.28616e-05
-2.85297e-06
1.34777e-05
-1.85653e-06
-2.55593e-06
2.42791e-06
-1.68736e-05
8.36093e-06
-2.4165e-05
1.43926e-05
-2.51675e-05
1.95794e-05
-2.20814e-05
2.36322e-05
-1.74744e-05
2.66724e-05
-1.3043e-05
2.89467e-05
-9.45487e-06
3.06676e-05
-6.74227e-06
3.19669e-05
-4.67376e-06
3.28989e-05
-2.9495e-06
3.34573e-05
-1.28479e-06
3.35982e-05
5.77616e-07
3.32637e-05
2.86242e-06
3.24458e-05
5.80058e-06
3.13461e-05
9.65576e-06
3.07261e-05
1.48716e-05
3.08252e-05
2.23605e-05
2.94793e-05
3.19964e-05
2.41135e-05
3.63357e-05
1.29754e-05
1.84328e-05
-9.89568e-06
-2.2223e-06
1.57e-05
-8.61796e-07
-3.91644e-06
3.32493e-06
-2.10603e-05
9.04129e-06
-2.98813e-05
1.48008e-05
-3.0927e-05
1.96715e-05
-2.69521e-05
2.34309e-05
-2.12339e-05
2.62802e-05
-1.58923e-05
2.84986e-05
-1.16733e-05
3.02837e-05
-8.5273e-06
3.173e-05
-6.12007e-06
3.28543e-05
-4.07386e-06
3.36246e-05
-2.05502e-06
3.39908e-05
2.11397e-07
3.39072e-05
2.94599e-06
3.33692e-05
6.33863e-06
3.24249e-05
1.06001e-05
3.14482e-05
1.58482e-05
3.15295e-05
2.22792e-05
3.26871e-05
3.08387e-05
3.08609e-05
3.81619e-05
1.9515e-05
2.97788e-05
9.59915e-06
-1.40737e-06
1.71074e-05
3.1765e-07
-5.64147e-06
4.29157e-06
-2.50343e-05
9.67807e-06
-3.52678e-05
1.5124e-05
-3.63729e-05
1.96761e-05
-3.15042e-05
2.31578e-05
-2.47155e-05
2.58491e-05
-1.85837e-05
2.80569e-05
-1.3881e-05
2.99529e-05
-1.04233e-05
3.15868e-05
-7.754e-06
3.29328e-05
-5.41985e-06
3.39306e-05
-3.05282e-06
3.45168e-05
-3.7478e-07
3.4653e-05
2.80983e-06
3.43646e-05
6.62694e-06
3.3716e-05
1.12488e-05
3.2813e-05
1.67512e-05
3.21813e-05
2.2911e-05
3.28703e-05
3.01498e-05
3.23413e-05
3.86909e-05
2.25548e-05
3.95653e-05
3.21348e-05
-4.30418e-07
1.75378e-05
1.69225e-06
-7.76414e-06
5.51885e-06
-2.88609e-05
1.04672e-05
-4.02161e-05
1.54668e-05
-4.13725e-05
1.9627e-05
-3.56644e-05
2.28246e-05
-2.79131e-05
2.53953e-05
-2.11544e-05
2.76469e-05
-1.61326e-05
2.97075e-05
-1.2484e-05
3.15733e-05
-9.61979e-06
3.3174e-05
-7.02059e-06
3.44228e-05
-4.30156e-06
3.52414e-05
-1.19338e-06
3.55753e-05
2.4759e-06
3.54737e-05
6.72855e-06
3.5011e-05
1.17114e-05
3.43169e-05
1.74453e-05
3.3437e-05
2.37909e-05
3.30501e-05
3.05367e-05
3.22906e-05
3.94504e-05
2.47378e-05
4.71181e-05
5.68543e-05
9.25134e-07
1.66127e-05
3.72325e-06
-1.05623e-05
7.64346e-06
-3.27809e-05
1.20364e-05
-4.46082e-05
1.62584e-05
-4.55937e-05
1.97939e-05
-3.91995e-05
2.26283e-05
-3.07473e-05
2.50744e-05
-2.36005e-05
2.7378e-05
-1.84361e-05
2.95999e-05
-1.47059e-05
3.16823e-05
-1.17021e-05
3.35188e-05
-8.85712e-06
3.5006e-05
-5.78873e-06
3.60659e-05
-2.2533e-06
3.66292e-05
1.91266e-06
3.67452e-05
6.61248e-06
3.64325e-05
1.20242e-05
3.58659e-05
1.80119e-05
3.50837e-05
2.4573e-05
3.41629e-05
3.14576e-05
3.272e-05
4.08933e-05
2.64131e-05
5.34249e-05
8.32533e-05
2.54494e-21
-8.04914e-21
5.24359e-22
-6.57371e-22
5.54824e-24
4.492e-23
-5.76036e-26
2.57771e-24
-1.84782e-26
1.03778e-25
-4.97643e-27
7.94538e-27
-6.81059e-27
1.73457e-27
-1.12405e-26
1.37198e-27
-3.12291e-26
1.85895e-27
-9.88164e-26
7.23309e-27
-3.03521e-25
1.98534e-26
-2.35967e-24
9.93273e-26
-3.82763e-23
1.07641e-24
-7.03388e-22
7.2226e-24
-1.24554e-20
-6.50192e-22
-2.77683e-19
-3.78081e-20
-5.21768e-18
-1.21262e-18
-1.99305e-18
-2.54773e-17
-8.0327e-17
-1.47854e-20
-5.14785e-20
-2.79108e-21
2.16788e-20
-2.59303e-22
3.49236e-21
-2.33512e-23
2.60986e-22
-3.92663e-24
1.77968e-23
-8.08157e-25
2.23002e-24
-6.83379e-25
4.42459e-25
-1.40759e-24
2.83671e-25
-6.45218e-24
1.06527e-24
-1.31266e-23
3.25836e-24
-2.37029e-23
6.34607e-24
-1.10438e-22
1.90871e-23
-1.74866e-21
2.00033e-22
-3.38904e-20
1.70098e-21
-6.47016e-19
-4.93476e-20
-2.36336e-17
-3.44919e-18
-2.56931e-16
-3.68323e-17
-6.62483e-17
-3.57328e-16
-2.69312e-16
-1.17339e-19
-6.50666e-21
-7.7555e-20
3.90216e-19
-1.28808e-20
1.40515e-19
-2.74628e-21
1.89073e-20
-7.61215e-22
3.20167e-21
-1.49536e-22
6.18244e-22
-6.92075e-23
9.29903e-23
-1.21009e-22
3.95354e-23
-5.85213e-22
1.22615e-22
-1.3363e-21
4.25068e-22
-2.15637e-21
8.68114e-22
-5.51791e-21
1.7005e-21
-5.88188e-20
1.06139e-20
-1.07341e-18
9.24923e-20
-2.05647e-17
-1.54152e-18
-3.33345e-16
-4.80454e-17
-7.27264e-15
4.15603e-15
-2.63809e-15
-1.13167e-14
-6.79262e-15
-1.31912e-19
1.20412e-19
-3.04792e-19
1.95663e-18
-1.36593e-19
1.64891e-18
-8.80098e-20
4.31246e-19
-4.65402e-20
1.81552e-19
-1.37004e-20
5.55827e-20
-6.73337e-21
1.09932e-20
-8.88522e-21
4.66691e-21
-3.44772e-20
8.95857e-21
-8.9584e-20
3.32359e-20
-1.41183e-19
7.43668e-20
-2.46628e-19
1.2164e-19
-1.40902e-18
3.8731e-19
-2.31701e-17
3.17178e-18
-3.04533e-16
-1.43981e-17
-4.18528e-15
1.77893e-15
-1.39505e-13
1.14568e-13
-7.23643e-14
-2.43335e-13
-2.07395e-13
6.14897e-19
4.85801e-17
-8.31183e-20
7.2929e-18
-5.92789e-19
8.12105e-18
-7.04352e-19
3.39914e-18
-4.90011e-19
1.77336e-18
-2.927e-19
7.51464e-19
-3.30471e-19
3.39761e-19
-7.10228e-19
2.93226e-19
-1.90802e-18
7.14441e-19
-3.29132e-18
1.73771e-18
-5.21279e-18
3.22723e-18
-8.08158e-18
5.38353e-18
-2.62411e-17
1.14291e-17
-2.37733e-16
8.87666e-17
-2.52203e-15
-4.07269e-19
-6.06853e-14
2.50812e-14
-1.79319e-12
1.43538e-12
-1.36318e-12
-3.48357e-12
-4.32023e-12
1.48609e-15
-1.57934e-15
1.06453e-18
1.4587e-15
-1.10735e-18
3.973e-17
-1.28658e-18
1.1816e-17
-1.44677e-18
4.75707e-18
-1.87904e-18
3.11609e-18
-4.24563e-18
2.68764e-18
-1.36649e-17
5.27055e-18
-2.77194e-17
9.55317e-18
-4.62495e-17
2.14884e-17
-7.14682e-17
4.92533e-17
-1.07086e-16
8.17596e-17
-2.85604e-16
1.95292e-16
-4.31011e-15
2.86536e-15
-4.09412e-14
1.11111e-14
-6.04003e-13
1.94023e-13
-1.73832e-11
1.24635e-11
-1.98417e-11
-3.60464e-11
-6.6512e-11
4.3321e-13
-1.17189e-12
4.14595e-15
4.2961e-13
-9.963e-18
4.29679e-15
-2.20896e-17
1.70904e-16
-6.68748e-18
5.55859e-17
-1.39065e-17
1.38433e-17
-3.4274e-17
2.15623e-17
-3.89545e-17
1.51446e-17
-4.71996e-17
1.43538e-17
-1.40684e-16
3.12809e-17
-2.54127e-16
1.28007e-16
-3.89915e-16
3.92498e-16
-1.37229e-15
2.89931e-15
-6.24152e-14
4.67461e-14
-6.07986e-13
3.07349e-13
-4.02884e-12
6.39493e-14
-1.35529e-10
6.03918e-11
-2.23685e-10
-2.83898e-10
-7.81796e-10
4.56791e-11
-4.93424e-10
3.43163e-13
1.46614e-11
5.12766e-16
3.46356e-13
-5.60496e-18
1.25157e-15
-7.5512e-18
1.47261e-16
-1.0055e-17
1.85449e-17
-1.09967e-17
2.41936e-17
-2.23917e-17
3.79908e-17
-4.80248e-17
2.63132e-16
-1.17427e-16
3.13033e-17
-2.1033e-16
1.46585e-16
-1.02028e-15
8.8385e-16
-3.77345e-14
3.33596e-14
-6.26569e-13
5.11825e-13
-6.66594e-12
4.31598e-12
-4.19588e-11
8.2329e-12
-9.36208e-10
6.505e-10
-2.30397e-09
-1.44867e-09
-7.48794e-09
8.20152e-06
8.41113e-06
1.9009e-05
-2.13698e-05
2.88651e-05
-4.26309e-05
3.52749e-05
-5.09978e-05
3.98551e-05
-5.01558e-05
4.42529e-05
-4.35862e-05
4.89634e-05
-3.54516e-05
5.40157e-05
-2.86496e-05
5.92847e-05
-2.37038e-05
6.45232e-05
-1.99442e-05
6.94227e-05
-1.66015e-05
7.36829e-05
-1.31173e-05
7.7128e-05
-9.23383e-06
7.97e-05
-4.82535e-06
8.12036e-05
4.09109e-07
8.20266e-05
5.78942e-06
8.19586e-05
1.20922e-05
8.12933e-05
1.86772e-05
8.04922e-05
2.53741e-05
7.96069e-05
3.23428e-05
7.96843e-05
4.08159e-05
8.42207e-05
4.88885e-05
6.9177e-05
9.8297e-05
1.81105e-05
-9.69933e-06
4.05383e-05
-4.37835e-05
5.08079e-05
-4.89359e-05
4.95615e-05
-4.13342e-05
4.65711e-05
-4.04451e-05
4.63865e-05
-3.84557e-05
4.98498e-05
-3.47341e-05
5.56436e-05
-3.12411e-05
6.22946e-05
-2.83684e-05
6.86823e-05
-2.56025e-05
7.44798e-05
-2.23809e-05
7.93461e-05
-1.7982e-05
8.29871e-05
-1.28744e-05
8.54364e-05
-7.27464e-06
8.72668e-05
-1.42101e-06
8.788e-05
5.17621e-06
8.78527e-05
1.21196e-05
8.74391e-05
1.90907e-05
8.77357e-05
2.50776e-05
8.89958e-05
3.10827e-05
9.21639e-05
3.76478e-05
9.93331e-05
4.17193e-05
5.41415e-05
0.000114369
2.66222e-05
-2.86777e-05
3.39283e-05
-2.62644e-05
2.26641e-05
-3.24172e-06
1.9788e-05
-1.21237e-07
1.84542e-05
-5.63124e-10
1.71291e-05
-4.12425e-18
1.8515e-05
-5.07205e-17
2.2977e-05
-4.64336e-16
2.93605e-05
-8.28803e-15
3.70077e-05
-1.63435e-13
4.62387e-05
-7.37102e-13
5.66308e-05
-6.32209e-06
6.76896e-05
-5.81958e-06
7.89935e-05
-4.4904e-06
8.84929e-05
-1.78824e-06
9.29689e-05
3.82138e-06
9.18757e-05
1.32127e-05
8.97061e-05
2.12604e-05
9.05687e-05
2.42149e-05
9.2722e-05
2.89295e-05
9.5695e-05
3.46748e-05
9.90804e-05
3.83339e-05
4.41815e-05
0.00010904
8.94572e-06
-1.36301e-22
3.36352e-06
-9.68303e-21
1.218e-07
-4.0568e-20
5.63124e-10
-3.65664e-19
-5.4466e-20
-2.93852e-18
-6.49106e-19
-9.54259e-19
-8.75221e-18
-4.96541e-18
-1.79161e-16
-3.95528e-17
-3.60168e-15
-6.99753e-16
-1.30352e-14
-1.71675e-14
8.16064e-16
-8.82735e-14
3.99532e-07
-2.67146e-13
2.17788e-06
-1.17314e-11
6.08586e-06
-2.64276e-10
1.35609e-05
-2.2138e-09
2.74672e-05
-3.97116e-08
5.32617e-05
9.27161e-08
8.4198e-05
3.10913e-06
9.90753e-05
1.45532e-05
0.00010151
2.64948e-05
0.000101208
3.49765e-05
0.000100984
3.85581e-05
4.14889e-05
0.000103677
-7.90838e-24
-2.9008e-22
-9.03341e-22
-8.94324e-21
-8.90417e-21
-3.3199e-20
-3.48022e-20
-3.44182e-19
-1.13313e-19
-2.90871e-18
-1.31938e-19
-2.84925e-18
-7.22015e-19
-2.20416e-17
-9.22369e-18
-2.71736e-16
-3.6704e-16
-3.01376e-15
-9.42154e-15
-9.65627e-15
-5.3214e-15
-1.02531e-13
-1.63113e-13
-1.84366e-13
-5.42919e-12
-6.5959e-12
-5.68674e-11
-2.14212e-10
-9.74871e-10
-1.32408e-09
-3.86872e-08
-2.36773e-09
6.16213e-08
-1.50471e-08
4.20589e-06
-2.68168e-08
2.19516e-05
-7.35132e-10
5.51798e-05
7.506e-07
9.34418e-05
7.20508e-06
0.000104528
2.74729e-05
3.91914e-05
0.000106826
-3.12851e-22
-7.64948e-23
-6.82867e-21
-4.28997e-21
-6.94566e-20
-1.59066e-19
-3.5899e-19
-2.09578e-18
-1.59708e-18
-1.43093e-17
-7.06351e-18
-5.97961e-17
-2.49568e-17
-1.87885e-16
-2.159e-17
-4.84955e-16
-7.3001e-15
-7.2763e-15
-2.09637e-13
-8.914e-13
3.96051e-14
-4.07772e-12
1.0041e-13
-3.75772e-13
1.45437e-11
-2.13187e-11
-1.9235e-10
-8.14937e-10
-1.35367e-10
-9.24405e-09
5.24662e-09
-2.26943e-08
1.00242e-08
-3.83339e-08
1.1496e-08
-3.25445e-08
1.1516e-08
-4.18793e-09
8.16879e-07
2.67019e-08
9.40803e-06
1.44697e-07
4.17007e-05
3.99616e-07
4.044e-06
8.69766e-05
-6.6465e-23
-2.02539e-23
-4.4282e-21
-2.27795e-21
-1.99631e-19
-1.88089e-19
-2.72034e-18
-5.37706e-18
-1.4512e-17
-4.56684e-17
-4.5707e-17
-1.63169e-16
-7.67385e-17
-3.18291e-16
8.31568e-16
-4.45635e-16
1.37253e-14
-1.94618e-14
-1.37753e-12
-2.02541e-12
6.86383e-13
-8.13429e-12
9.5121e-14
-8.49459e-13
-9.35441e-12
-1.22932e-11
-3.51116e-10
-1.97026e-09
3.01072e-09
-2.16201e-08
1.62504e-08
-3.2028e-08
2.73134e-08
-4.36955e-08
2.44946e-08
-3.56192e-08
4.00044e-08
-1.0257e-08
8.90329e-08
2.62018e-09
2.30988e-07
1.3905e-08
6.20437e-07
2.16454e-08
1.693e-07
5.48479e-06
-4.61913e-23
2.59374e-23
-1.44183e-21
-9.85862e-22
-1.89653e-19
-1.49844e-19
-4.37281e-18
-5.52764e-18
-2.61605e-17
-5.48285e-17
-7.0125e-17
-2.02172e-16
-7.88313e-17
-3.625e-16
-1.78647e-16
-4.00297e-16
-9.44196e-15
-1.03143e-14
-2.18113e-12
-1.98702e-12
5.39941e-13
-8.2119e-12
1.49686e-12
-2.31851e-12
5.34322e-11
-6.40506e-11
1.19339e-09
-2.37926e-09
4.61148e-09
-2.16044e-10
8.93124e-09
-2.0866e-12
1.48918e-08
-3.7023e-08
2.6402e-08
-3.37233e-08
4.03701e-08
-2.37355e-08
4.79986e-08
-1.37549e-08
6.35896e-08
3.9956e-11
8.32541e-08
-2.78546e-09
1.38678e-08
2.4377e-07
-8.98277e-23
6.77889e-23
-7.75025e-22
-3.03716e-22
-1.16253e-19
-7.60175e-20
-3.56657e-18
-4.82552e-18
-2.38976e-17
-5.35671e-17
-6.36702e-17
-2.0245e-16
-6.29908e-17
-3.67937e-16
-4.43947e-17
-4.22496e-16
2.07871e-14
-3.10938e-14
-1.19498e-12
-5.33087e-13
3.83466e-13
-7.11003e-12
5.80293e-12
-9.0259e-12
8.53655e-12
-7.81518e-11
2.17985e-10
-2.81549e-12
1.97265e-12
-2.60574e-14
5.2009e-14
-1.38122e-13
2.90231e-09
-9.47351e-11
6.67974e-09
-7.52185e-09
9.08185e-09
-2.81327e-08
2.61092e-08
-1.15086e-08
5.17639e-08
-3.28561e-09
2.62258e-08
5.79126e-09
1.34868e-08
2.59871e-08
-1.23265e-23
8.3471e-23
-2.37108e-22
-7.89873e-23
-4.90089e-20
-2.77821e-20
-2.05249e-18
-2.9095e-18
-1.50927e-17
-3.67375e-17
-4.23056e-17
-1.49941e-16
-3.69538e-17
-3.6281e-16
-1.58951e-16
-4.13825e-16
3.42878e-15
-3.09148e-14
-1.36344e-14
-1.86828e-13
2.04717e-13
-2.69323e-13
-3.00125e-12
-4.57894e-12
2.57388e-12
-4.78181e-11
1.08306e-14
-2.46695e-13
4.84518e-16
-6.66486e-15
1.03318e-14
-1.29752e-13
-6.04893e-12
-8.86355e-11
-6.78977e-10
-6.84462e-09
-4.02564e-11
-2.61561e-08
2.59478e-09
-1.17768e-08
6.45125e-09
-7.49404e-09
6.8689e-09
4.3108e-09
1.01047e-08
9.15085e-09
-5.30344e-25
9.15557e-23
-5.45155e-22
4.65637e-22
-1.62228e-20
-7.04072e-21
-8.00454e-19
-1.20111e-18
-5.13609e-18
-1.62238e-17
-2.43731e-17
-7.00321e-17
-1.66935e-17
-2.92116e-16
-5.67848e-17
-2.73281e-16
1.41688e-15
-1.66242e-14
5.54813e-15
-2.05727e-13
4.30526e-15
-2.82911e-13
8.04633e-14
-2.8209e-13
2.70046e-13
-3.35164e-13
-2.17781e-15
-1.44936e-13
2.33412e-15
-1.35437e-15
2.58447e-13
-3.81474e-13
-3.86043e-11
-4.95009e-11
-5.96697e-09
-2.91356e-09
-6.95603e-09
-1.9514e-08
-8.46994e-09
-3.58509e-08
-3.74774e-09
-1.35808e-08
-1.03673e-09
6.30412e-10
6.56448e-09
1.44065e-09
6.06667e-27
9.24673e-23
-2.08734e-22
6.45163e-22
-3.91319e-21
-1.21948e-21
-2.17496e-19
-3.40975e-19
-1.2226e-18
-5.01037e-18
-1.29332e-17
-2.5096e-17
-7.38209e-18
-1.91441e-16
1.15056e-17
-2.94263e-16
5.4233e-16
-2.81567e-15
1.55214e-14
-1.56876e-13
1.28044e-14
-2.15849e-13
6.82822e-15
-2.93246e-13
4.23524e-15
-3.48149e-13
-3.04836e-17
-1.52598e-13
-9.80817e-16
-6.85381e-17
-3.80153e-13
-2.06843e-15
-4.9631e-11
-2.35362e-13
-8.42634e-10
-1.05272e-11
-6.15732e-09
-2.54967e-10
-1.72953e-08
-3.60121e-09
-2.05668e-08
-5.77861e-09
-1.39971e-08
-1.50153e-09
1.50733e-09
-7.11014e-09
-7.69962e-25
8.47305e-23
-2.33832e-23
6.14937e-22
-6.90593e-22
-1.82842e-22
-4.16403e-20
-7.29038e-20
-2.47193e-19
-1.16602e-18
-3.90678e-18
-7.62385e-18
-5.08856e-18
-1.14999e-16
-1.10868e-19
-3.45374e-16
5.17551e-16
-3.90509e-16
1.03597e-14
-4.67386e-14
9.97534e-15
-1.79357e-13
4.53958e-15
-2.88423e-13
-4.41945e-15
-3.05279e-13
-3.23717e-17
-7.42693e-14
-5.21851e-17
-6.54948e-17
-2.08157e-15
-6.30632e-17
-2.3724e-13
-2.90844e-16
-1.07612e-11
-3.45927e-15
-2.65645e-10
-8.64885e-14
-3.86505e-09
-1.87976e-12
-7.27068e-09
-3.21941e-11
-8.37846e-09
-4.4017e-10
1.94476e-10
-7.66916e-09
-8.79509e-25
6.94655e-23
-1.20815e-24
5.09017e-22
-3.87535e-22
2.03485e-22
-6.12111e-21
-1.18154e-20
-4.42854e-20
-2.12399e-19
-1.14284e-18
-2.02072e-18
-1.24672e-17
-5.42403e-17
-8.54474e-18
-3.2433e-16
-2.41483e-17
-3.81973e-16
-1.12916e-16
-4.31451e-16
-3.39838e-15
-1.1875e-14
-1.12485e-14
-1.20585e-13
-8.67124e-15
-1.26036e-13
-1.05005e-16
-4.69928e-15
-1.21739e-17
-1.82337e-16
-2.20063e-17
-7.72423e-17
-1.09257e-16
-2.27669e-16
-3.0676e-15
-5.22873e-16
-8.92761e-14
-3.60121e-16
-1.96693e-12
-2.21036e-15
-3.41327e-11
-2.86449e-14
-4.73815e-10
-4.91966e-13
-9.92672e-12
-9.77535e-10
-5.91363e-25
5.02417e-23
3.16394e-24
3.68726e-22
-2.20885e-22
3.31293e-22
-7.21818e-22
-1.3687e-21
-7.34827e-21
-2.99958e-20
-2.92354e-19
-4.78784e-19
-9.72356e-18
-1.67791e-17
-1.71884e-17
-1.63315e-16
-1.10159e-17
-3.42889e-16
-9.21991e-17
-2.54754e-16
-7.2009e-15
-8.7429e-17
-7.45254e-15
-4.51334e-17
-6.93709e-16
-3.91805e-17
-5.53588e-17
-5.19254e-17
-1.86732e-17
-1.66259e-16
-4.52839e-17
-5.94061e-17
-1.90806e-16
-3.69066e-17
-2.07365e-16
-8.49084e-17
-2.97777e-16
-3.11363e-16
-1.70975e-15
-8.41103e-16
-2.86838e-14
-1.72604e-15
-5.20032e-13
-6.96703e-16
-6.80983e-15
-1.04382e-11
-2.7011e-25
3.15819e-23
4.83188e-24
2.30576e-22
-2.27034e-23
2.60778e-22
-6.44708e-23
-6.84418e-23
-1.12815e-21
-3.18652e-21
-6.58724e-20
-9.83885e-20
-2.67904e-18
-3.72369e-18
-1.7196e-17
-4.46113e-17
-1.90712e-17
-1.45068e-16
-2.60135e-18
-1.74866e-16
-3.02386e-18
-8.80209e-17
-3.98649e-18
-3.83684e-17
-5.95362e-18
-3.12314e-17
-3.21913e-17
-3.80994e-17
-1.80821e-17
-6.28834e-17
-7.27637e-18
-1.95681e-17
-1.50412e-17
-4.08479e-18
-8.54917e-17
-6.90152e-18
-4.72887e-16
-2.20351e-17
-1.17861e-15
-8.16379e-17
-1.12046e-15
-3.52958e-16
-1.42523e-15
-6.16296e-16
-7.56473e-16
-7.63988e-15
-6.98377e-26
1.69465e-23
3.86915e-24
1.22328e-22
-8.32107e-25
1.61553e-22
-3.03592e-24
1.94535e-23
-1.55955e-22
-2.35038e-22
-1.33375e-20
-1.71481e-20
-5.94762e-19
-6.63572e-19
-5.28562e-18
-7.80781e-18
-1.05531e-17
-3.00405e-17
-1.10428e-17
-5.51315e-17
-5.44903e-18
-7.07e-17
-4.52879e-18
-3.85942e-17
-7.12638e-18
-2.26684e-17
-8.70372e-18
-3.55498e-18
-5.3633e-18
-2.21642e-18
-8.37417e-19
-8.46683e-19
-1.12539e-18
-3.93515e-19
-3.04381e-18
-8.8906e-19
-1.26118e-17
-4.08103e-18
-8.19763e-17
-1.74657e-17
-5.84311e-16
-6.94447e-17
-1.14034e-15
-2.64518e-16
-5.50203e-16
-1.19209e-15
3.75367e-26
7.58696e-24
2.5393e-24
5.37682e-23
5.89295e-25
8.11666e-23
-5.70079e-24
1.8587e-23
-1.93823e-23
-1.03754e-23
-2.56452e-21
-2.46895e-21
-9.95053e-20
-9.67122e-20
-8.70241e-19
-1.04589e-18
-2.539e-18
-4.54691e-18
-6.01419e-18
-1.16234e-17
-6.53289e-18
-1.7706e-17
-4.14734e-18
-1.56003e-17
-1.13541e-18
-7.20846e-18
-4.31932e-19
-1.48481e-18
-1.8481e-19
-1.77142e-19
-7.98159e-20
-2.58255e-20
-1.11225e-19
-2.84967e-20
-4.57203e-19
-1.1131e-19
-2.676e-18
-7.75147e-19
-1.38527e-17
-4.64044e-18
-8.36405e-17
-2.20625e-17
-3.46538e-16
-8.74061e-17
-2.81669e-16
-6.47196e-16
6.61217e-26
2.74731e-24
1.35597e-24
1.89872e-23
5.84172e-25
3.21701e-23
-3.08258e-25
8.3269e-24
-2.21803e-24
-3.96628e-25
-4.14212e-22
-2.88472e-22
-1.32141e-20
-1.18384e-20
-1.14481e-19
-1.27756e-19
-5.36992e-19
-6.19578e-19
-1.31168e-18
-1.80927e-18
-1.53735e-18
-2.33244e-18
-1.15307e-18
-2.14201e-18
-3.37229e-19
-1.19862e-18
-4.50038e-20
-3.01335e-19
-4.06577e-21
-2.3441e-20
-4.78822e-21
-7.44567e-22
-8.54194e-21
-1.4834e-21
-5.9071e-20
-1.57592e-20
-5.2582e-19
-1.70632e-19
-3.73787e-18
-1.3808e-18
-2.06178e-17
-8.35112e-18
-7.48085e-17
-3.78521e-17
-1.50541e-16
-6.25244e-16
3.58483e-26
7.70794e-25
5.6991e-25
5.16459e-24
2.72371e-25
9.58572e-24
-1.70521e-26
2.49102e-24
-4.95828e-25
3.94874e-26
-5.13528e-23
-2.63373e-23
-1.58655e-21
-1.23184e-21
-1.50125e-20
-1.59757e-20
-9.58838e-20
-7.45851e-20
-1.76956e-19
-2.27401e-19
-2.04901e-19
-2.88451e-19
-1.74414e-19
-2.51148e-19
-6.53609e-20
-1.49722e-19
-6.6206e-21
-4.55952e-20
-1.08271e-22
-4.35497e-21
-1.30301e-22
3.43837e-23
-5.68881e-22
-8.41953e-23
-8.90302e-21
-2.82649e-21
-1.12795e-19
-4.19597e-20
-1.0613e-18
-4.2565e-19
-6.82361e-18
-3.27111e-18
-2.442e-17
-1.77046e-17
-6.17819e-17
-3.43633e-16
1.14907e-26
1.57256e-25
1.77689e-25
1.01709e-24
8.39827e-26
2.00328e-24
1.82325e-27
5.07121e-25
-9.0326e-25
5.83625e-26
-4.54638e-24
-1.75152e-24
-2.02038e-22
-1.01635e-22
-1.84752e-21
-1.74866e-21
-1.22372e-20
-8.64361e-21
-2.22659e-20
-2.30484e-20
-2.49393e-20
-2.85782e-20
-2.08307e-20
-2.46748e-20
-9.02023e-21
-1.33702e-20
-1.15191e-21
-2.97918e-21
9.97782e-24
1.03898e-23
-7.83502e-24
1.40698e-22
-1.69398e-22
7.73679e-23
-1.5905e-21
-4.59971e-22
-2.52522e-20
-1.06489e-20
-2.98882e-19
-1.30503e-19
-2.70444e-18
-1.24675e-18
-9.07333e-18
-8.55256e-18
-3.33453e-17
-3.4441e-17
2.31808e-27
2.09246e-26
3.82933e-26
1.30612e-25
1.74841e-26
2.66166e-25
2.74721e-27
6.52607e-26
-6.08024e-26
9.6726e-27
-2.87392e-25
-6.09396e-26
-1.99767e-23
-5.48187e-24
-2.2935e-22
-1.3263e-22
-1.25347e-21
-7.66757e-22
-2.17928e-21
-1.68603e-21
-2.4214e-21
-2.17719e-21
-1.89003e-21
-1.89457e-21
-5.93347e-22
-1.0014e-21
2.52416e-24
-1.29185e-22
3.8896e-23
1.04271e-22
2.42171e-23
1.85301e-22
-1.09444e-22
1.08952e-22
-2.79768e-22
-5.1002e-23
-5.69634e-21
-2.70271e-21
-7.96976e-20
-3.89411e-20
-9.3751e-19
-4.52482e-19
-4.19071e-18
-3.76461e-18
-1.64325e-17
-8.44773e-18
2.77968e-28
1.39851e-27
5.18939e-27
8.53515e-27
2.27115e-27
1.85173e-26
4.58519e-28
4.39691e-27
-2.16453e-27
7.1027e-28
-1.06709e-26
-2.05556e-28
-1.23888e-24
-1.33746e-25
-2.1816e-23
-5.49193e-24
-8.72149e-23
-3.59167e-23
-1.61116e-22
-7.74179e-23
-1.7818e-22
-1.06583e-22
-1.38451e-22
-9.05066e-23
-3.37173e-23
-2.69107e-23
2.42352e-23
3.73201e-23
4.83619e-23
1.22639e-22
3.17242e-23
1.18936e-22
-1.2595e-23
6.52299e-23
-4.6727e-23
-4.60368e-24
-1.27081e-21
-6.6257e-22
-2.09918e-20
-1.09151e-20
-3.06502e-19
-1.51899e-19
-1.48065e-18
-1.47848e-18
-6.92559e-18
-3.49291e-18
1.57677e-29
2.04411e-36
3.61045e-28
1.61667e-34
1.52376e-28
4.64093e-33
3.34451e-29
8.88406e-32
-1.22057e-29
1.22866e-30
-2.2561e-28
6.13683e-30
-4.18717e-26
-5.77642e-28
-9.68903e-25
-8.24504e-26
-3.7036e-24
-6.51973e-25
-7.51346e-24
-1.92722e-24
-8.25041e-24
-2.08256e-24
-5.35623e-24
1.29692e-25
7.35596e-24
7.22217e-24
2.70169e-23
3.45283e-23
2.90986e-23
5.42591e-23
1.75847e-23
4.47082e-23
-1.47557e-24
2.31534e-23
-8.19099e-24
-8.51366e-25
-2.71457e-22
-1.54622e-22
-5.24154e-21
-2.79449e-21
-9.37945e-20
-4.54503e-20
-4.6675e-19
-5.07624e-19
-2.52514e-18
-1.17096e-18
2.42553e-37
1.04036e-36
8.88104e-35
7.67569e-35
3.00477e-33
2.27123e-33
5.64974e-32
4.45046e-32
3.5882e-31
6.7038e-31
-2.32719e-29
7.86371e-30
-4.61339e-28
6.45558e-29
-1.2944e-26
2.29594e-28
-1.07009e-25
8.14493e-28
-1.3357e-25
6.46485e-27
1.93176e-26
7.35599e-26
1.20982e-24
6.59828e-25
6.45222e-24
4.06188e-24
1.12411e-23
1.09589e-23
1.01977e-23
1.42699e-23
5.76169e-24
1.06749e-23
-2.68071e-25
5.14408e-24
-1.57468e-24
-1.55242e-25
-5.4973e-23
-3.44422e-23
-1.19818e-21
-6.42473e-22
-2.57711e-20
-1.19064e-20
-1.32053e-19
-1.50397e-19
-7.8992e-19
-3.26243e-19
8.16327e-38
4.16993e-37
4.11843e-35
2.85713e-35
1.4338e-33
8.65527e-34
2.94582e-32
1.71361e-32
4.40495e-31
2.60426e-31
4.4341e-30
3.15683e-30
1.88107e-29
3.02854e-29
7.79567e-29
2.13125e-28
7.12166e-28
1.18214e-27
9.22247e-27
6.64461e-27
9.32804e-26
4.0714e-26
6.4218e-25
2.23879e-25
1.92398e-24
8.62961e-25
2.76085e-24
1.90246e-24
2.25746e-24
2.21204e-24
1.17919e-24
1.52757e-24
-4.93069e-26
6.62349e-25
-3.0824e-25
-8.73872e-26
-1.04716e-23
-7.05102e-24
-2.47026e-22
-1.31331e-22
-6.30051e-21
-2.71967e-21
-3.24506e-20
-3.87963e-20
-2.17682e-19
-9.00546e-20
1.1753e-38
1.23803e-37
1.41852e-35
7.82903e-36
5.07125e-34
2.4118e-34
1.06317e-32
4.76637e-33
1.65232e-31
7.18097e-32
1.94969e-30
8.69566e-31
1.63841e-29
8.5272e-30
1.06293e-28
6.68364e-29
6.87894e-28
4.20761e-28
4.79046e-27
2.22746e-27
2.96467e-26
1.07079e-26
1.2747e-25
4.26885e-26
3.11054e-25
1.21401e-25
3.96976e-25
2.25997e-25
2.98589e-25
2.2333e-25
1.39672e-25
1.36842e-25
-1.9467e-26
4.80197e-26
-6.68663e-26
-4.4895e-26
-1.83419e-24
-1.22627e-24
-4.54779e-23
-2.37893e-23
-1.36793e-21
-5.46388e-22
-7.18468e-21
-8.94919e-21
-5.46859e-20
-1.10147e-20
-1.61754e-40
2.43118e-38
3.32231e-36
1.41644e-36
1.24203e-34
4.3863e-35
2.63324e-33
8.49141e-34
4.13038e-32
1.2307e-32
5.01156e-31
1.4289e-31
4.70973e-30
1.36269e-30
3.47647e-29
1.06452e-29
2.12187e-28
6.70416e-29
1.16128e-27
3.3536e-28
5.209e-27
1.32512e-27
1.65157e-26
4.13295e-27
3.39889e-26
9.92148e-27
3.68162e-26
1.62002e-26
2.45164e-26
1.24556e-26
9.27747e-27
6.12656e-27
-6.75262e-27
1.06687e-27
-1.36454e-26
-8.25321e-27
-2.81938e-25
-1.85333e-25
-7.41948e-24
-3.8181e-24
-2.69406e-22
-9.77894e-23
-1.49418e-21
-1.87554e-21
-1.27539e-20
5.79649e-21
-9.74862e-41
2.41116e-39
4.63106e-37
1.29782e-37
1.8502e-35
3.9856e-36
3.89624e-34
7.34341e-35
5.95431e-33
9.66017e-34
7.08781e-32
9.70862e-33
6.6784e-31
7.75962e-32
4.95152e-30
5.06947e-31
2.86462e-29
2.75934e-30
1.29155e-28
1.26528e-29
4.54111e-28
4.8908e-29
1.217e-27
1.56022e-28
2.19863e-27
3.79464e-28
1.85518e-27
5.49717e-28
9.93309e-28
3.42824e-28
1.86953e-28
1.22997e-28
-9.60378e-28
-2.955e-29
-1.84514e-27
-1.05892e-27
-3.79815e-26
-2.39582e-26
-1.07262e-24
-5.4147e-25
-4.86909e-23
-1.57288e-23
-2.93156e-22
-3.60711e-22
-2.66635e-21
4.82021e-21
-1.82263e-41
1.61532e-41
2.74648e-38
8.74105e-40
1.26177e-36
2.78729e-38
2.53187e-35
5.46591e-37
3.41911e-34
7.82097e-36
3.45209e-33
8.73661e-35
2.73734e-32
7.91864e-34
1.76186e-31
5.96468e-33
9.37724e-31
3.78475e-32
4.14227e-30
2.02991e-31
1.4938e-29
9.0833e-31
4.06537e-29
3.20403e-30
6.53179e-29
7.4208e-30
4.48286e-29
5.05126e-30
1.75572e-29
2.03898e-30
-4.57419e-30
-7.08734e-31
-8.48638e-30
-4.67031e-30
-1.9885e-28
-1.03675e-28
-4.33313e-27
-2.60344e-27
-1.35054e-25
-6.77828e-26
-8.48334e-24
-2.2976e-24
-5.29854e-23
-6.4198e-23
-4.70629e-22
2.3257e-21
-1.8993e-43
3.5315e-44
8.78273e-41
2.22983e-42
6.9247e-39
8.28115e-41
1.61803e-37
1.92619e-39
2.49447e-36
3.28819e-38
2.89336e-35
4.3963e-37
2.66592e-34
4.77785e-36
2.00815e-33
4.317e-35
1.25207e-32
3.26938e-34
6.41512e-32
2.0578e-33
2.56007e-31
1.03113e-32
6.64066e-31
3.58102e-32
5.01902e-31
5.47144e-32
2.23231e-31
2.82603e-32
-8.49652e-32
9.08334e-33
-9.83449e-32
-1.28189e-33
-6.33867e-31
-2.73884e-31
-1.60736e-29
-8.19935e-30
-4.00779e-28
-2.40922e-28
-1.44352e-26
-7.65343e-27
-1.5377e-24
-3.09682e-25
-8.47084e-24
-1.04028e-23
-6.80813e-23
7.71568e-22
-5.74278e-46
6.39195e-47
-1.92768e-46
4.65467e-45
1.64434e-41
1.97552e-43
5.12878e-40
5.36066e-42
9.80201e-39
1.07578e-40
1.38582e-37
1.69985e-39
1.54171e-36
2.18425e-38
1.38882e-35
2.31914e-37
1.01555e-34
2.02839e-36
5.81202e-34
1.40619e-35
2.27546e-33
6.77096e-35
3.87883e-33
1.49085e-34
2.21612e-33
7.05496e-35
7.82239e-34
1.99061e-35
-9.2354e-35
2.78288e-36
-5.49401e-34
-2.74002e-34
-3.09454e-32
-1.61367e-32
-9.72115e-31
-5.59709e-31
-2.94963e-29
-2.09986e-29
-1.29366e-27
-8.09825e-28
-2.84321e-25
-3.70929e-26
-1.10715e-24
-1.42991e-24
-8.5905e-24
1.7203e-22
-1.33233e-48
3.89044e-50
-1.09735e-47
3.66769e-48
2.91511e-44
1.97127e-46
1.24024e-42
6.75692e-45
2.9169e-41
1.69658e-43
4.96809e-40
3.29646e-42
6.5357e-39
5.10202e-41
6.7955e-38
6.30315e-40
5.4446e-37
5.91564e-39
2.96884e-36
3.56763e-38
7.28996e-36
6.4297e-38
3.80122e-36
2.53094e-38
1.17037e-36
5.98457e-39
1.77116e-37
7.57051e-40
-1.17064e-35
-2.14698e-38
-2.83773e-35
-1.62955e-35
-1.22795e-33
-8.87094e-34
-4.74607e-32
-3.94058e-32
-1.82184e-30
-1.82747e-30
-9.15322e-29
-7.69544e-29
-2.75024e-26
-3.53288e-27
-1.00613e-25
-1.46997e-25
-9.55131e-25
2.40702e-23
-9.83223e-52
9.08375e-54
-1.4534e-50
1.11627e-51
2.37921e-47
7.50127e-50
1.48957e-45
3.14922e-48
4.54e-44
9.46574e-47
9.50376e-43
2.12438e-45
1.46178e-41
3.52163e-44
1.6256e-40
3.85956e-43
1.12289e-39
1.8768e-42
2.26004e-39
5.95494e-43
9.74296e-40
1.69441e-43
2.48303e-40
1.62615e-42
3.33889e-41
5.43765e-43
-9.93782e-40
-7.97947e-43
-8.12174e-39
-6.25086e-40
-9.0436e-37
-8.68741e-37
-4.40827e-35
-4.84184e-35
-2.1403e-33
-2.42849e-33
-9.15792e-32
-1.26048e-31
-4.24295e-30
-5.50773e-30
-7.57257e-28
-2.411e-28
-4.50402e-27
-1.03617e-26
-9.29592e-26
1.4802e-24
-2.64031e-55
4.37586e-59
-5.27594e-54
6.21766e-57
8.82816e-51
4.19909e-55
7.28819e-49
1.38411e-53
2.64229e-47
1.74197e-52
5.98815e-46
2.88839e-53
8.18608e-45
1.04522e-53
4.69489e-44
3.37445e-51
1.69024e-44
1.02313e-48
5.3025e-45
1.95471e-46
5.47843e-44
1.98782e-44
1.93123e-44
5.2692e-43
-2.92874e-44
1.81338e-43
-3.02374e-44
-2.34502e-44
-3.04325e-40
-2.35552e-41
-3.26262e-38
-3.1483e-38
-1.56326e-36
-2.25697e-36
-7.58923e-35
-1.15417e-34
-2.835e-33
-6.11206e-33
-8.0334e-32
-2.82329e-31
-3.02756e-30
-1.29245e-29
6.18033e-29
-5.78224e-28
-9.34837e-27
1.43427e-27
-1.39594e-60
-6.56822e-76
-2.99335e-59
4.0777e-70
4.31616e-56
3.60325e-66
1.365e-54
7.04979e-63
3.69531e-55
6.59768e-60
1.81169e-55
4.07528e-57
7.2624e-53
1.97568e-54
2.5901e-50
7.52976e-52
5.59954e-48
2.0758e-49
6.25163e-46
3.72782e-47
1.77409e-44
3.50045e-45
6.39074e-45
8.72506e-44
-8.68034e-46
2.69265e-44
-6.94573e-44
1.18408e-45
-8.09127e-42
-7.79587e-43
-1.20715e-39
-8.18119e-40
-6.0798e-38
-7.02154e-38
-2.52014e-36
-4.4807e-36
-6.34387e-35
-2.06277e-34
9.63829e-34
-1.17545e-32
2.83544e-31
-6.33933e-31
2.60933e-29
-3.09004e-29
-6.40847e-28
7.21127e-28
2.1895e-77
-1.23412e-76
-1.8153e-72
1.17367e-70
2.65841e-65
1.26387e-66
5.63439e-62
2.19289e-63
5.58668e-59
1.67941e-60
3.63632e-56
7.20174e-58
1.71414e-53
2.01812e-55
5.55187e-51
4.14379e-53
1.12971e-48
6.92826e-51
1.16885e-46
9.24155e-49
3.13702e-45
6.6036e-47
1.02067e-45
1.53679e-47
4.62706e-47
2.03378e-48
-2.70043e-44
-1.44819e-47
-1.97883e-43