/*--------------------------------*- C++ -*----------------------------------*\
| =========                 |                                                 |
| \\      /  F ield         | OpenFOAM: The Open Source CFD Toolbox           |
|  \\    /   O peration     | Version:  2206                                  |
|   \\  /    A nd           | Website:  www.openfoam.com                      |
|    \\/     M anipulation  |                                                 |
\*---------------------------------------------------------------------------*/
FoamFile
{
    version     2.0;
    format      ascii;
    arch        "LSB;label=32;scalar=64";
    class       volScalarField;
    location    "0.425";
    object      alpha.water;
}
// * * * * * * * * * * * * * * * * * * * * * * * * * * * * * * * * * * * * * //

dimensions      [0 0 0 0 0 0 0];

internalField   nonuniform List<scalar> 
2268
(
0.999999
0.999999
0.999999
1
1
1
1
1
1
1
1
1
1
1
1
1
1
1
1
0.919784
0.839124
0.878225
0.998261
0.999999
1
1
1
1
1
1
1
1
1
1
1
1
1
1
1
1
1
1
0.989084
0.839124
0.945663
0.998285
1
1
1
1
1
1
1
1
1
1
1
1
1
1
1
1
1
1
1
1
0.93265
0.982494
0.998312
1
1
1
1
1
1
1
1
1
1
1
1
1
1
1
1
1
1
1
1
0.999982
0.999758
0.998751
1
1
1
1
1
1
1
1
1
1
1
1
1
1
1
1
1
1
1
1
0.999999
0.999997
0.998894
1
1
1
1
1
1
1
1
1
1
1
1
1
1
1
1
1
1
1
1
1
1
0.998901
1
1
1
0.999999
0.999999
0.999999
1
1
1
1
1
1
1
1
1
1
1
1
1
1
1
1
0.998914
1
1
0.999997
0.999987
0.999988
0.999993
0.999997
0.999999
0.999999
1
1
1
1
1
1
1
1
1
1
1
1
1
0.999273
6.77406e-16
2.85888e-16
2.23815e-17
6.98456e-19
2.60326e-20
2.11077e-21
5.5918e-22
5.5918e-22
8.99346e-22
4.02898e-21
9.90422e-21
2.35713e-20
1.31826e-19
1.92931e-18
3.55129e-17
8.65063e-16
1.76557e-14
6.44242e-14
2.19096e-13
1.02734e-14
7.32425e-15
3.87503e-16
2.08157e-17
1.34141e-18
1.92627e-19
5.05483e-20
4.1908e-20
1.96357e-19
6.00559e-19
1.01979e-18
1.47617e-18
5.59529e-18
8.9719e-17
1.92027e-15
7.66007e-14
8.03688e-13
4.14062e-13
3.3968e-13
6.04347e-14
6.05345e-14
1.05066e-14
1.09365e-15
1.77911e-16
3.96239e-17
7.93177e-18
4.4237e-18
1.65418e-17
5.54054e-17
9.93466e-17
1.35529e-16
2.7442e-16
2.91513e-15
6.21917e-14
1.16691e-12
9.45832e-12
1.88752e-11
1.08947e-11
1.70973e-13
2.40171e-13
9.94639e-14
1.96293e-14
7.82381e-15
2.77023e-15
7.3936e-16
4.32052e-16
9.74703e-16
3.36571e-15
6.46561e-15
8.79838e-15
1.20314e-14
6.82219e-14
9.54121e-13
7.54184e-12
7.86e-11
4.98719e-10
3.65207e-10
2.23097e-13
6.89755e-13
4.52261e-13
1.35175e-13
7.29373e-14
3.31855e-14
2.02591e-14
2.45198e-14
7.21331e-14
1.50099e-13
2.26464e-13
3.24513e-13
3.9362e-13
7.33242e-13
8.00916e-12
1.09656e-10
1.26831e-09
8.72032e-09
8.00651e-09
7.52101e-13
6.91403e-13
8.38247e-13
3.49815e-13
1.48654e-13
1.16593e-13
1.44502e-13
4.7969e-13
1.21581e-12
2.12672e-12
3.18578e-12
4.34239e-12
5.1696e-12
6.55583e-12
8.30288e-11
1.25884e-09
1.80662e-08
1.12154e-07
1.26991e-07
5.44717e-09
3.67942e-12
6.5575e-13
4.6183e-12
1.97524e-12
4.7943e-13
1.2242e-12
2.22277e-12
2.5778e-12
4.16975e-12
1.13761e-11
1.4518e-11
1.3571e-11
6.10772e-11
7.96656e-10
1.15598e-08
2.75792e-07
1.11942e-06
1.53304e-06
3.55835e-06
1.54008e-07
3.5475e-12
1.1713e-12
8.34924e-13
4.89594e-13
4.97868e-13
5.11374e-13
5.91334e-13
4.20347e-12
1.04323e-11
1.14817e-11
3.02841e-11
4.05346e-10
6.58497e-09
9.04194e-08
1.05969e-06
8.88821e-06
1.44735e-05
1
1
0.99994
0.999851
0.999872
0.999919
0.999954
0.999976
0.999989
0.999996
0.999997
0.999999
1
1
0.999999
1
1
1
1
1
1
1
1
1
0.999867
0.989402
0.972513
0.980435
0.986843
0.989073
0.992478
0.996307
0.99898
0.999885
0.999943
0.999975
0.999993
0.999999
1
1
1
1
1
1
1
1
0.973631
0.783213
0.456729
0.357886
0.409098
0.433291
0.437527
0.459074
0.497481
0.54295
0.593982
0.652383
0.713981
0.787869
0.870728
0.970202
0.999999
1
1
1
1
1
1
0.300542
0.0536795
3.01894e-17
2.55423e-16
2.06524e-15
7.80836e-15
1.16546e-14
3.78688e-14
2.91474e-13
4.72478e-12
9.34915e-11
0.00514862
0.0257219
0.0580893
0.104434
0.17399
0.315891
0.586587
0.947396
0.999999
1
1
1
1.23828e-18
1.18137e-18
4.95583e-18
3.07875e-17
2.56021e-16
3.91903e-15
3.06864e-14
3.26245e-13
3.3452e-12
6.74406e-12
1.70861e-10
5.83976e-10
8.36676e-10
7.14566e-09
1.54179e-07
1.4446e-06
2.62413e-05
0.0208202
0.105864
0.290534
0.659433
0.999958
0.999996
8.13743e-19
1.96358e-17
1.15368e-15
1.26319e-14
8.66076e-14
4.5757e-13
2.12326e-12
9.34734e-12
8.92904e-11
6.4426e-09
2.26158e-08
8.36676e-10
2.40895e-09
5.78381e-06
4.92695e-05
0.000138467
0.000133085
0.00012071
0.00012139
0.00012139
0.0323007
0.192839
0.542403
3.02304e-19
2.03346e-17
3.30774e-15
8.78239e-14
7.4755e-13
2.9733e-12
7.44687e-12
1.12047e-11
1.41173e-11
3.73633e-08
1.80378e-07
3.32723e-09
9.83326e-09
4.59743e-05
0.000337219
0.000502995
0.000499233
0.000430455
0.000269862
0.000272429
0.000401631
0.000425591
0.0114922
0
1.57329e-18
3.27389e-15
1.3607e-13
1.3884e-12
5.2509e-12
1.01712e-11
1.01839e-11
1.28082e-11
5.22466e-08
1.80717e-07
4.13204e-08
3.24806e-08
6.10678e-05
0.000232383
0.000364704
0.000501922
0.000501048
0.000499006
0.000477842
0.000450424
0.000270413
0.000178326
-9.27876e-19
1.3632e-19
2.01936e-15
1.34874e-13
1.50216e-12
5.82143e-12
1.09159e-11
1.08912e-11
1.19041e-11
3.2288e-08
1.81139e-07
9.33501e-08
1.83052e-06
2.39373e-05
6.83038e-11
2.44958e-10
9.37597e-05
0.000354223
0.000154165
0.00021212
0.000502624
0.000273009
0.000107524
-2.80193e-18
2.61604e-20
9.02552e-16
9.85831e-14
1.27908e-12
5.30447e-12
1.09315e-11
1.16205e-11
8.84397e-10
6.32656e-09
8.16585e-08
2.07375e-07
1.40009e-06
6.83038e-11
5.01025e-11
1.07827e-10
2.84481e-10
3.67478e-08
0.00013776
0.000144794
0.000186298
0.000102021
0.00010175
-3.72161e-18
-1.3286e-35
3.02898e-16
5.27851e-14
7.25798e-13
3.14409e-12
9.58429e-12
1.12523e-11
8.89507e-10
3.73555e-09
3.75667e-09
4.25365e-08
9.46131e-08
1.72414e-09
4.25192e-11
3.25481e-11
1.84958e-09
5.23239e-05
0.000263454
0.000251117
0.00011468
0.000103048
0.000102021
-4.18466e-18
-9.40264e-18
7.08471e-17
1.9831e-14
2.84828e-13
1.30026e-12
6.78391e-12
7.78576e-12
2.76287e-10
5.26154e-09
4.3581e-09
2.68314e-09
2.63197e-09
2.64257e-09
1.64315e-12
3.49275e-12
1.54212e-10
1.44965e-05
0.000211551
0.000370997
0.000398194
0.000398194
0.000377611
-4.22648e-18
-1.34699e-17
1.07382e-17
5.29238e-15
8.16198e-14
4.35601e-13
4.09939e-12
8.39092e-12
4.21891e-11
4.05357e-09
5.0775e-09
5.16343e-09
4.72654e-09
2.72355e-09
1.11031e-12
1.07743e-12
6.27036e-13
2.4875e-12
4.98719e-11
1.01664e-09
6.87485e-05
0.000212076
0.000251297
-3.84089e-18
-1.31829e-17
1.24135e-34
1.08784e-15
1.80743e-14
1.26051e-13
2.28806e-12
9.19742e-12
9.76517e-12
4.02251e-10
2.44493e-09
6.37834e-09
6.33335e-09
7.32364e-10
1.07743e-12
1.07743e-12
1.07688e-12
1.19015e-12
3.04339e-12
6.86595e-12
2.4526e-11
3.21136e-10
7.76552e-06
-3.11658e-18
-1.1151e-17
-5.02783e-18
1.7008e-16
3.16838e-15
3.20912e-14
9.6675e-13
7.10159e-12
9.69885e-12
6.14046e-12
4.50664e-11
2.74703e-09
1.06584e-09
3.34597e-11
3.55774e-12
1.43778e-12
4.197e-12
8.06933e-12
6.83735e-12
6.88388e-12
7.93799e-12
1.87812e-11
3.20562e-11
-2.23509e-18
-8.22524e-18
-8.30854e-18
1.87169e-17
4.31853e-16
7.36556e-15
2.722e-13
2.82796e-12
7.18697e-12
6.1823e-12
7.35201e-13
7.14787e-13
7.11253e-13
7.76974e-13
3.20619e-12
9.31127e-13
4.01313e-13
1.69071e-12
6.90345e-12
2.09491e-11
3.16258e-11
2.86598e-11
2.87059e-11
-1.39747e-18
-5.22539e-18
-6.6316e-18
6.25663e-19
4.40046e-17
1.47369e-15
5.76759e-14
7.01919e-13
2.36799e-12
3.14854e-12
2.2004e-12
9.14943e-13
7.16704e-13
8.78871e-13
8.15779e-13
2.53872e-13
5.03919e-14
8.55121e-14
2.9972e-13
1.27844e-12
7.38881e-12
2.87269e-11
4.6965e-11
-7.48217e-19
-2.81261e-18
-4.164e-18
-5.22809e-19
3.00755e-18
2.51253e-16
1.004e-14
1.17529e-13
4.57106e-13
8.81726e-13
1.32472e-12
9.71858e-13
4.06776e-13
8.68557e-14
2.78859e-14
1.04082e-14
5.13779e-15
1.23931e-14
6.51542e-14
3.29046e-13
1.57555e-12
7.85415e-12
2.53332e-11
-3.35175e-19
-1.25346e-18
-2.12033e-18
-5.05112e-19
1.02043e-19
3.55273e-17
1.44409e-15
1.55995e-14
6.84563e-14
1.79317e-13
2.6757e-13
2.38922e-13
1.11862e-13
2.3162e-14
2.48474e-15
3.36955e-16
3.84062e-16
1.63845e-15
1.31939e-14
9.44361e-14
5.48267e-13
2.63519e-12
1.08245e-11
-1.21654e-19
-4.48772e-19
-8.51891e-19
-2.28962e-19
6.39974e-23
4.08048e-18
1.75542e-16
1.92561e-15
9.37036e-15
2.74912e-14
3.48467e-14
3.17938e-14
1.80024e-14
4.65285e-15
3.60326e-16
9.53514e-18
1.92795e-17
2.43423e-16
3.0764e-15
2.9227e-14
2.1247e-13
1.14537e-12
5.04314e-12
-3.42525e-20
-1.23791e-19
-2.57386e-19
-6.93343e-20
-1.09915e-21
3.63982e-19
1.8115e-17
2.42918e-16
1.13733e-15
3.44309e-15
4.35262e-15
3.77479e-15
2.2491e-15
6.87062e-16
6.55766e-17
-9.79061e-19
6.53892e-35
4.44168e-17
7.83606e-16
9.12281e-15
8.26992e-14
5.27103e-13
1.94874e-12
-7.01705e-21
-2.47329e-20
-5.4553e-20
-1.42931e-20
-1.64544e-21
2.34034e-20
1.47057e-18
2.63723e-17
1.32095e-16
3.47303e-16
4.3115e-16
3.73212e-16
2.01833e-16
4.37487e-17
-3.00635e-19
-4.15045e-18
-2.34514e-18
6.70576e-18
2.02221e-16
2.78834e-15
3.07002e-14
2.43311e-13
1.03292e-12
-9.37614e-22
-3.22383e-21
-7.35253e-21
-1.86278e-21
-2.76271e-22
7.57813e-22
7.73727e-20
1.96588e-18
1.15304e-17
2.52154e-17
3.27461e-17
2.86161e-17
1.49978e-17
1.35014e-18
-3.10478e-18
-5.62467e-18
-3.39216e-18
5.62223e-19
5.15954e-17
8.20667e-16
1.07905e-14
1.0054e-13
4.60955e-13
-6.29089e-23
-2.1394e-22
-5.18879e-22
-1.27102e-22
-2.05524e-23
8.74233e-26
1.82095e-21
8.01902e-20
5.30483e-19
1.1513e-18
1.58921e-18
1.34287e-18
2.88465e-19
-1.12189e-18
-3.73994e-18
-3.69479e-18
-2.07365e-18
1.26296e-20
1.26272e-17
2.24906e-16
3.48666e-15
3.72059e-14
1.78122e-13
-9.22561e-32
-4.11651e-30
-1.31904e-28
-2.60031e-27
-3.60111e-26
-1.80094e-25
5.68428e-24
1.19025e-21
9.55297e-21
2.83772e-20
2.9734e-20
-3.89821e-21
-2.19048e-19
-1.0592e-18
-1.68821e-18
-1.41547e-18
-7.48437e-19
1.35666e-21
2.94157e-18
5.61155e-17
1.00173e-15
1.20778e-14
6.01743e-14
-4.70795e-32
-1.98551e-30
-6.54496e-29
-1.31857e-27
-1.98953e-26
-2.3381e-25
-1.92474e-24
-6.86798e-24
-2.4459e-23
-1.95061e-22
-2.23271e-21
-2.0177e-20
-1.25358e-19
-3.42133e-19
-4.51668e-19
-3.43338e-19
-1.68549e-19
4.33283e-22
6.54316e-19
1.2574e-17
2.52661e-16
3.40844e-15
1.7516e-14
-1.89054e-32
-7.50489e-31
-2.52754e-29
-5.1369e-28
-7.82244e-27
-9.50474e-26
-9.14832e-25
-6.46198e-24
-3.60004e-23
-2.03427e-22
-1.25451e-21
-6.95226e-21
-2.70509e-20
-6.03151e-20
-7.10553e-20
-4.98059e-20
-2.1956e-20
1.78639e-21
1.32644e-19
2.51065e-18
5.58611e-17
8.46898e-16
4.49179e-15
-5.61689e-33
-2.08637e-31
-7.13175e-30
-1.44493e-28
-2.18181e-27
-2.64946e-26
-2.60765e-25
-2.05243e-24
-1.29833e-23
-6.91192e-23
-3.34533e-22
-1.34433e-21
-3.85933e-21
-7.26395e-21
-7.26917e-21
-4.51564e-21
-1.60861e-21
9.28288e-22
2.2711e-20
4.45465e-19
1.09226e-17
1.90034e-16
1.03267e-15
-1.10159e-33
-3.82514e-32
-1.31232e-30
-2.60158e-29
-3.7797e-28
-4.40235e-27
-4.2152e-26
-3.30785e-25
-2.09403e-24
-1.05377e-23
-4.19274e-23
-1.31833e-22
-3.19463e-22
-5.27242e-22
-4.10286e-22
-2.04452e-22
-3.61022e-23
1.48794e-22
3.39152e-21
7.02134e-20
1.91445e-18
3.90286e-17
2.11292e-16
-1.08816e-34
-3.54708e-33
-1.20536e-31
-2.27209e-30
-2.9964e-29
-3.02178e-28
-2.42559e-27
-1.59237e-26
-8.71505e-26
-4.0215e-25
-1.56551e-24
-5.0354e-24
-1.2362e-23
-1.80979e-23
-1.14193e-23
-4.1489e-24
9.02341e-25
1.89102e-23
4.3354e-22
9.81639e-21
3.03754e-19
7.42257e-18
3.62907e-17
-7.23529e-37
-2.41512e-35
-8.51387e-34
-1.70647e-32
-2.44766e-31
-2.74416e-30
-2.4984e-29
-1.89154e-28
-1.20719e-27
-6.51681e-27
-2.93765e-26
-1.04492e-25
-2.44301e-25
-1.68049e-25
-6.86168e-26
2.38667e-26
8.13619e-26
1.83355e-24
4.67709e-23
1.22087e-21
4.43866e-20
1.31942e-18
4.79749e-18
-1.56343e-39
-6.22383e-38
-2.55309e-36
-6.06193e-35
-1.03712e-33
-1.39177e-32
-1.5195e-31
-1.38014e-30
-1.05145e-29
-6.66245e-29
-3.36377e-28
-1.17816e-27
-1.81731e-27
-9.48596e-28
-3.08427e-28
1.62912e-29
4.72771e-27
1.45109e-25
4.34282e-24
1.38979e-22
6.10643e-21
2.1479e-19
5.0049e-19
-2.78449e-42
-1.31254e-40
-6.14249e-39
-1.69899e-37
-3.4157e-36
-5.41693e-35
-6.99218e-34
-7.46289e-33
-6.5663e-32
-4.58296e-31
-2.22358e-30
-4.93789e-30
-2.35907e-30
-6.72687e-31
-9.51345e-32
5.10037e-30
2.82919e-28
1.00099e-26
3.85983e-25
1.51028e-23
7.36832e-22
2.95418e-20
6.77621e-20
-1.66016e-45
-1.04588e-43
-6.17836e-42
-2.1546e-40
-5.41697e-39
-1.05627e-37
-1.64193e-36
-2.03876e-35
-1.92455e-34
-1.16834e-33
-2.12134e-33
-8.42041e-34
-2.00978e-34
-2.56888e-35
2.53322e-34
2.82019e-31
1.57034e-29
7.14964e-28
3.42265e-26
1.47152e-24
6.94718e-23
3.01356e-21
1.40922e-20
-3.78078e-49
-3.22487e-47
-2.3696e-45
-1.00951e-43
-3.03731e-42
-6.83974e-41
-1.13839e-39
-1.25355e-38
-6.12905e-38
-1.95682e-38
-5.60727e-39
-5.4243e-38
-1.83005e-38
1.45196e-39
1.72102e-36
1.50814e-32
8.61729e-31
4.41519e-29
2.3562e-27
1.05666e-25
4.74916e-24
2.09637e-22
2.006e-21
-1.76987e-54
-1.82447e-52
-1.33707e-50
-4.45869e-49
-5.61588e-48
-9.34161e-49
-3.39267e-49
-1.10002e-46
-3.35193e-44
-6.44056e-42
-6.59226e-40
-1.76029e-38
-6.10803e-39
5.5344e-56
9.91387e-38
5.3508e-34
3.97109e-32
2.07731e-30
1.12393e-28
5.34151e-27
2.50184e-25
1.14714e-23
1.9547e-22
2.57449e-71
-1.21889e-65
-1.15696e-61
-2.28171e-58
-2.13751e-55
-1.32395e-52
-6.43918e-50
-2.46363e-47
-6.82221e-45
-1.23148e-42
-1.16316e-40
-2.91855e-39
-9.07415e-40
-4.02267e-41
4.41252e-39
1.35331e-35
1.20401e-33
7.91061e-32
3.71145e-30
2.18346e-28
1.1923e-26
5.9292e-25
1.27044e-23
4.68144e-72
-3.58343e-66
-4.09298e-62
-7.13135e-59
-5.46901e-56
-2.35055e-53
-6.60573e-51
-1.36104e-48
-2.28477e-46
-3.06177e-44
-2.1994e-42
-5.14918e-43
-6.85965e-44
0
3.19224e-41
2.0303e-37
2.76165e-35
1.79535e-33
1.12959e-31
8.87454e-30
3.70337e-28
2.00383e-26
5.8663e-25
5.41107e-75
-5.36629e-67
-6.3383e-63
-1.08436e-59
-7.90578e-57
-3.12935e-54
-7.35678e-52
-9.93947e-50
-6.63726e-48
-1.98308e-46
-1.00766e-44
-1.81588e-45
-2.78418e-45
-4.349e-43
4.78132e-43
1.37859e-39
2.43865e-37
2.39942e-35
2.04206e-33
1.53653e-31
8.7153e-30
6.77526e-28
1.68388e-26
-1.99699e-81
-7.97314e-71
-9.28845e-67
-2.0506e-63
-1.65396e-60
-6.45198e-58
-1.26749e-55
-1.03185e-53
-9.82286e-55
-3.81234e-54
-2.49698e-51
-1.28097e-48
-4.6695e-46
-9.44799e-44
-7.38646e-45
1.35192e-43
9.5168e-41
1.5297e-38
3.22455e-36
4.30507e-34
6.13647e-32
8.48797e-30
2.85434e-28
-2.77573e-82
-1.43173e-77
-1.24446e-73
-2.12489e-70
-8.7502e-68
-3.24225e-69
-8.73245e-71
-3.612e-68
-6.35276e-65
-8.66163e-62
-8.89914e-59
-6.36034e-56
-2.47209e-53
-2.47668e-53
0
4.75559e-51
4.05218e-48
8.71126e-45
3.1e-42
1.08299e-39
3.7223e-37
1.37645e-34
4.68164e-33
0
0
-7.37936e-94
-1.72626e-88
-1.11187e-83
-1.87954e-79
-1.58538e-75
-8.0405e-72
-2.6243e-68
-5.3498e-65
-5.89902e-62
-2.46547e-59
-6.42523e-61
-9.29562e-63
-9.93179e-65
-1.6121e-66
1.2901e-63
1.13945e-59
-2.48405e-126
7.58573e-54
1.5298e-51
5.36686e-49
2.43463e-47
0.964031
0.277027
0.00102161
0.000120315
0.999998
0.690492
0.0443353
0.000220229
1
0.773343
0.0808867
4.03304e-05
0.999997
0.998961
0.227475
1.15102e-05
0.999994
0.999854
0.81821
0.0608349
0.997984
0.999482
0.997972
0.795842
0.252021
0.783416
0.990767
0.977857
0.000275327
0.079974
0.362605
0.661051
0.000113252
0.000136366
0.000417132
0.0372568
0.000102081
0.000117257
0.000148246
0.00028972
0.000101847
0.000136745
0.000374082
0.000381238
0.000351172
0.000344894
0.000295526
9.21246e-05
0.000274614
0.000183608
1.65438e-05
1.87417e-08
1.74227e-05
4.3258e-07
8.22597e-09
4.71403e-09
1.3707e-10
6.66386e-10
3.87263e-09
4.5031e-09
3.27562e-11
2.49842e-10
4.06077e-09
5.12349e-09
6.8925e-11
1.02449e-09
3.43681e-09
4.73265e-09
6.5532e-11
2.28792e-10
6.67536e-10
8.45893e-10
8.46444e-11
1.99105e-10
1.59662e-10
1.59662e-10
6.64457e-11
1.71226e-10
1.59653e-10
1.244e-09
2.154e-11
1.21959e-10
1.61601e-10
7.48168e-10
6.81502e-12
5.80593e-11
1.72163e-10
1.79014e-10
3.52766e-12
2.76431e-11
9.22234e-11
1.80822e-10
1.65244e-12
1.30533e-11
2.91066e-11
1.62104e-10
6.80448e-13
5.6317e-12
1.35431e-11
1.48895e-10
2.78776e-13
2.25557e-12
7.63649e-12
1.38383e-10
1.12807e-13
9.94732e-13
4.68607e-12
7.22523e-11
4.35626e-14
4.4612e-13
2.92691e-12
2.57536e-11
1.55395e-14
1.81438e-13
1.61626e-12
1.27147e-11
4.75433e-15
6.69117e-14
7.33511e-13
7.33894e-12
1.19164e-15
2.16192e-14
3.3157e-13
4.75096e-12
2.39846e-16
5.93276e-15
1.78931e-13
3.8988e-12
3.81733e-17
1.32999e-15
1.15974e-13
3.59002e-12
4.85528e-18
2.2735e-16
4.98033e-14
2.03006e-12
4.92851e-19
3.20225e-17
1.98095e-14
7.39155e-13
3.82371e-20
2.82849e-18
6.98463e-15
2.3189e-13
2.1007e-21
1.34744e-19
1.73563e-15
5.2657e-14
7.28924e-23
2.69882e-21
2.85693e-16
7.76083e-15
8.20431e-25
2.28875e-22
2.83341e-17
7.31149e-16
2.05682e-26
5.90083e-24
1.41449e-18
4.08853e-17
1.79028e-30
2.53496e-25
3.53488e-20
7.97311e-19
0
3.96679e-70
-1.16726e-38
-9.31009e-35
5.02929e-06
1.24762e-07
1.46694e-09
3.64354e-12
8.04595e-13
5.0125e-13
5.11374e-13
8.15274e-09
9.60662e-13
3.99521e-12
6.3139e-12
1.48232e-11
1.88658e-10
3.52959e-09
5.62259e-08
7.08566e-07
1.44867e-05
5.78842e-05
0.000108494
1.50347e-05
6.39584e-07
7.1474e-08
1.46694e-09
1.82504e-06
2.43283e-05
2.97369e-07
6.90818e-06
2.12584e-05
4.53437e-12
1.24632e-11
1.58145e-10
4.62576e-09
5.56944e-08
7.11523e-07
7.09703e-06
0.000330506
0.000911695
0.00065023
5.36769e-06
3.47253e-07
1.70086e-07
7.72572e-08
1.87724e-05
0.000594707
7.76718e-05
8.96666e-06
0.000105321
2.01863e-11
1.58145e-10
3.8671e-07
2.68749e-06
9.25763e-07
5.14694e-06
4.64014e-05
0.00194538
0.0121596
0.00429271
6.41871e-07
2.52712e-07
2.34166e-07
1.70086e-07
2.8194e-07
6.01122e-06
0.057283
4.42492e-06
7.25239e-08
8.50353e-10
9.88301e-10
5.26905e-09
6.03016e-08
2.25845e-05
2.34714e-05
5.0282e-05
0.00196204
0.0177789
0.0156879
0.0186071
0.137113
0.133953
2.8194e-07
0.00104379
0.0744009
0.540965
0.0579966
4.42628e-06
0.00060246
5.26905e-09
5.61634e-05
5.24675e-07
2.32274e-05
3.85929e-05
4.10033e-05
6.15721e-05
0.00816671
0.37813
0.692949
0.802989
0.874085
0.761921
0.651457
0.700714
0.919097
0.920351
0.788293
0.465044
0.167444
0.252532
0.052926
4.35393e-05
0.0527034
0.0903741
0.0111499
0.0249347
0.821067
0.965204
0.951124
0.940978
0.938477
0.942603
0.950383
0.952045
0.952045
0.952045
0.949754
0.895584
0.90021
0.855758
0.638825
0.788662
0.823353
0.309745
0.449703
0.908361
0.82198
0.87673
0.899399
0.897489
0.894407
0.896465
0.901808
0.911238
0.940803
0.941091
0.9362
0.933936
0.930018
0.926283
0.922287
0.924158
0.925426
0.925481
0.923206
0.10321
0.161372
0.19619
0.206281
0.213324
0.218726
0.219133
0.220645
0.23616
0.302601
0.435127
0.590144
0.834976
0.919516
0.924175
0.925426
0.92552
0.925481
0.925481
0.000273337
0.000106289
0.00013409
0.000141999
0.00014413
0.000146315
0.000129402
0.000105983
0.000108415
0.000169176
0.00259381
0.0186614
0.080464
0.162024
0.366523
0.860798
0.925426
0.925481
0.826513
0.000210913
1.93505e-06
3.22282e-06
3.8341e-06
3.52213e-06
2.96241e-06
-9.8864e-07
-1.60605e-06
-2.95595e-07
-2.59457e-07
3.94747e-06
1.8151e-05
0.000116192
0.000786742
0.00378278
0.356388
0.897992
0.923963
0.754897
6.70409e-06
4.68591e-08
7.48508e-08
7.28329e-08
5.75396e-08
6.19476e-08
5.6962e-08
1.17411e-07
1.77208e-07
1.16937e-07
2.23245e-07
9.30286e-07
1.44921e-05
0.000117245
0.000788261
0.127826
0.828654
0.918881
0.747786
6.11456e-09
4.46706e-09
4.0864e-09
3.70204e-09
1.05222e-08
3.89822e-08
5.10515e-08
1.58113e-07
1.87631e-07
1.04169e-07
1.29174e-07
4.04739e-07
9.07085e-07
1.39783e-05
0.000310558
0.219705
0.850485
0.916387
0.764363
4.39787e-09
3.90495e-09
3.51707e-09
3.51458e-09
1.10685e-08
3.9395e-08
4.26286e-08
4.46116e-08
6.6971e-08
6.76737e-08
1.10774e-07
1.05679e-07
4.9066e-06
0.000131177
0.00417284
0.434387
0.896617
0.915467
0.66845
4.45142e-09
3.93863e-09
3.51458e-09
3.51437e-09
3.51454e-09
6.64998e-07
1.63832e-06
6.78932e-07
1.20329e-07
1.55715e-06
1.18545e-07
3.83256e-07
1.45814e-05
0.000267628
0.0270556
0.564158
0.892836
0.838722
0.266681
5.14197e-09
4.44472e-09
3.51707e-09
3.51458e-09
3.51447e-09
8.5889e-07
2.51724e-06
2.51343e-06
5.80619e-07
1.58135e-06
3.28718e-07
5.19246e-07
7.21775e-06
0.00015201
0.0177158
0.504731
0.887955
0.471914
0.155416
4.28576e-09
4.29688e-09
7.27833e-09
6.28212e-09
3.516e-09
3.56929e-09
1.07041e-06
2.51722e-06
4.94944e-07
7.47785e-07
2.12422e-05
3.86939e-06
6.20439e-06
5.18599e-05
0.00534936
0.438321
0.870831
0.286409
0.153749
3.41507e-09
1.68823e-08
4.41746e-08
3.31576e-08
3.82316e-09
1.12646e-08
8.97516e-08
2.09277e-07
2.06561e-07
3.09463e-07
2.57417e-05
6.3801e-06
6.60357e-06
6.39144e-06
0.000533295
0.350065
0.846955
0.389426
0.153782
1.74098e-08
4.7285e-08
4.7285e-08
4.36367e-08
5.36546e-09
5.32935e-09
7.72327e-07
9.67981e-07
4.47348e-07
1.15441e-07
2.58187e-05
2.34139e-05
1.9186e-05
3.29527e-05
0.000373051
0.25155
0.729739
0.607559
0.199485
1.73033e-08
3.78814e-08
4.71439e-08
3.06158e-08
1.29402e-08
5.24775e-09
5.3622e-07
9.69695e-07
6.53503e-07
8.55148e-08
9.56949e-06
3.84783e-05
3.468e-05
3.89381e-05
0.00028223
0.215608
0.66127
0.603395
0.1944
1.75543e-10
1.78451e-10
5.26579e-09
4.06783e-09
4.06432e-08
6.4925e-09
1.02456e-08
1.53585e-07
1.84245e-07
8.12117e-08
2.13391e-07
2.79089e-05
2.90179e-05
3.78597e-05
0.000316763
0.238064
0.588222
0.295979
0.1944
1.74843e-10
2.69036e-10
2.75555e-10
2.92471e-10
1.80343e-08
4.95996e-07
5.70364e-08
4.1307e-08
4.1307e-08
4.5314e-08
4.85598e-08
4.34708e-05
3.85728e-05
4.94229e-05
0.000342612
0.18069
0.437063
0.354656
0.1944
1.74604e-10
1.30008e-09
2.20736e-09
7.5703e-10
1.20754e-09
9.95947e-07
4.15797e-07
4.1307e-08
2.69263e-06
8.16753e-07
6.36959e-06
6.56438e-05
5.93646e-05
5.95837e-05
0.00107993
0.0210844
0.173765
0.389815
0.35634
1.57544e-10
1.66649e-09
3.42123e-09
1.35766e-09
1.20123e-09
5.03476e-07
5.14551e-06
3.25278e-06
3.45436e-05
4.63743e-05
5.59095e-05
6.31048e-05
5.5496e-05
0.000266438
0.00176387
0.000160432
0.0001824
0.312056
0.396407
1.59314e-10
8.14036e-10
3.36689e-09
1.38104e-09
5.00414e-08
3.14009e-08
1.00758e-05
2.94941e-05
5.43683e-05
5.57265e-05
5.66143e-05
3.1787e-05
5.66675e-05
0.000354352
0.000189052
0.000160432
0.000160432
0.183045
0.396582
1.79963e-10
1.23283e-10
2.31461e-09
1.54027e-09
2.04361e-07
6.38664e-08
9.08976e-06
5.17262e-05
5.27753e-05
5.44316e-05
3.91674e-05
9.12204e-06
5.07171e-05
0.000117956
0.000143214
0.000156702
0.000166849
0.142222
0.395657
1.64219e-10
3.28783e-11
1.31821e-09
1.51406e-09
1.78389e-07
7.85121e-08
1.00108e-05
3.15554e-05
5.07445e-05
4.64174e-05
9.12204e-06
7.74072e-06
1.92941e-05
1.14352e-05
0.00122402
0.000775907
0.000305519
0.19434
0.39195
8.17801e-11
3.14179e-11
5.242e-10
7.95921e-10
7.82441e-10
1.28127e-07
9.62101e-06
5.01619e-06
8.73079e-06
8.95106e-06
1.14959e-05
7.74072e-06
7.74072e-06
9.02895e-06
0.00148405
0.0199893
0.00303307
0.264765
0.386996
2.77214e-11
2.09434e-11
4.0835e-11
2.19183e-10
4.60332e-10
2.1155e-07
2.15146e-06
4.70963e-07
6.69137e-07
4.24637e-06
0.000127748
1.21782e-05
8.30447e-06
8.78402e-06
0.0381361
0.0650146
0.0419233
0.275147
0.382362
1.57715e-11
1.65093e-11
2.33901e-11
1.46067e-10
3.26121e-09
5.27035e-08
3.75842e-07
4.01285e-07
4.70968e-07
6.69985e-07
4.3671e-05
0.000110798
8.73729e-06
0.0390692
0.0691084
0.0650808
0.026953
0.175796
0.377802
1.32308e-11
1.97094e-11
5.03963e-10
2.59505e-08
3.72965e-08
1.4222e-07
1.30548e-06
1.53801e-06
8.00686e-07
8.77225e-07
1.02946e-06
1.11416e-05
0.0458459
0.0505462
0.0357069
0.00949723
0.00159445
0.024042
0.371578
1.03964e-11
4.44041e-11
2.07949e-09
3.68436e-07
4.43961e-06
5.85366e-06
3.64806e-06
2.69549e-06
1.10992e-06
1.02153e-06
1.01247e-06
0.0106101
0.0497975
0.0505462
0.0137566
0.00144084
0.000986139
0.00142845
0.348955
7.09478e-12
1.9729e-10
4.95385e-09
2.33934e-07
5.59261e-05
0.000202268
0.000171966
2.6753e-05
1.17354e-06
1.01247e-06
7.47252e-07
0.0160435
0.051054
0.0498684
0.007738
0.000986041
0.000899431
0.000973565
0.298645
5.53234e-12
2.90433e-10
8.67224e-09
1.82828e-07
9.07807e-05
0.000293524
0.00029306
9.43868e-05
1.23006e-06
8.69552e-07
5.07325e-07
0.0192441
0.0528724
0.0508804
0.00656835
0.000899258
0.000892766
0.000899431
0.297902
4.57347e-14
6.18993e-16
-6.78245e-12
3.8134e-09
2.54635e-05
0.000232242
0.000293524
0.000220546
1.22806e-06
1.10258e-06
3.60357e-07
0.0204173
0.055634
0.0535335
0.00730716
0.000892703
0.000892766
0.000892766
0.348725
4.72356e-14
1.31155e-16
-2.88137e-13
-3.84713e-12
-9.18282e-12
6.51172e-08
0.000202731
0.000219899
2.43389e-05
1.30263e-06
2.95571e-07
0.0142881
0.0595773
0.06429
0.0101785
0.000903158
0.000892766
0.00866009
0.368553
3.50376e-14
5.45974e-15
5.21126e-17
-3.50041e-13
-1.92838e-13
-5.9881e-12
-1.44512e-11
0.000117972
8.27336e-05
2.4117e-06
1.85072e-07
0.00119157
0.0560954
0.0755407
0.0225568
0.00094788
0.000903199
0.0292352
0.37098
4.3587e-15
7.29621e-16
0
-3.29736e-14
-3.73455e-14
-2.57897e-14
-4.51123e-15
0
2.27836e-05
7.15579e-06
3.7286e-08
2.72713e-07
0.0368178
0.0780525
0.0368744
0.00107172
0.00094788
0.0554225
0.369921
4.13417e-16
6.02558e-17
-1.50156e-16
-3.05779e-15
-1.87352e-14
-1.54865e-14
-1.41868e-14
-7.12133e-15
-2.17951e-15
-7.67736e-16
0
3.7286e-08
0.0288492
0.0816608
0.0647295
0.00232499
0.00107172
0.0532629
0.348725
1.83592e-17
1.63944e-18
-1.05897e-16
-1.05133e-16
-7.4195e-16
-3.12377e-15
-1.1264e-14
-6.27136e-15
-2.03587e-15
-7.19662e-16
-3.62656e-23
3.11989e-07
0.0486185
0.0845803
0.08601
0.0158893
0.00136492
0.0308442
0.129129
2.13813e-19
6.17131e-21
-1.49601e-18
-8.35146e-19
-4.7412e-17
-1.00961e-15
-7.55237e-15
-3.22221e-15
-8.8111e-16
-3.72098e-16
0
0.00124054
0.0204751
0.0858048
0.08601
0.0656105
0.00302301
0.00580854
0.0101292
-1.34879e-31
-1.53391e-28
-1.52982e-23
-3.26602e-24
-7.30804e-20
-2.22442e-17
-2.58806e-15
-6.73901e-16
-1.20974e-16
-1.05607e-16
-6.4891e-17
-2.89075e-17
-1.26098e-17
0
0.0438985
0.0314707
0.00404822
0.00490874
0.0065227
)
;

boundaryField
{
    leftWall
    {
        type            zeroGradient;
    }
    rightWall
    {
        type            zeroGradient;
    }
    lowerWall
    {
        type            zeroGradient;
    }
    atmosphere
    {
        type            inletOutlet;
        inletValue      uniform 0;
        value           nonuniform List<scalar> 
46
(
0
0
0
0
0
0
0
0
0
0
0
0
0
0
0
0
0
0
0
0
0
0
0
0
0
0
0
0
0
0
0
0
0
0
0
0
0
0
0
0
0
0.0438985
0.0314707
0.00404822
0.00490874
0.0065227
)
;
    }
    defaultFaces
    {
        type            empty;
    }
}


// ************************************************************************* //
