/*--------------------------------*- C++ -*----------------------------------*\
| =========                 |                                                 |
| \\      /  F ield         | OpenFOAM: The Open Source CFD Toolbox           |
|  \\    /   O peration     | Version:  2206                                  |
|   \\  /    A nd           | Website:  www.openfoam.com                      |
|    \\/     M anipulation  |                                                 |
\*---------------------------------------------------------------------------*/
FoamFile
{
    version     2.0;
    format      ascii;
    arch        "LSB;label=32;scalar=64";
    class       volScalarField;
    location    "0.425";
    object      p;
}
// * * * * * * * * * * * * * * * * * * * * * * * * * * * * * * * * * * * * * //

dimensions      [1 -1 -2 0 0 0 0];

internalField   nonuniform List<scalar> 
2268
(
810.914
811.957
818.89
828.841
834.364
835.145
832.952
830.883
830.994
834.048
840.188
849.446
862.03
877.706
896.782
919.118
943.886
968.532
986.823
997.348
976.097
968.562
1008.09
751.11
751.666
758.722
768.493
774.094
774.912
772.81
770.889
771.154
774.333
780.551
789.809
801.998
817.35
835.818
857.408
881.644
906.93
927.996
941.051
923.914
897.319
941.669
690.275
690.359
697.236
706.715
712.43
713.334
711.418
709.787
710.356
713.779
720.156
729.475
741.723
757.002
775.192
796.023
818.743
841.979
862.637
876.206
866.231
838.05
882.594
628.708
628.06
634.516
643.62
649.465
650.511
648.868
647.654
648.659
652.432
659.037
668.47
680.744
695.91
713.842
734.169
755.96
777.538
796.362
809.208
807.001
796.022
835.227
566.832
565.029
570.762
579.391
585.381
586.613
585.297
584.594
586.136
590.335
597.217
606.79
619.09
634.166
651.901
671.874
693.132
713.971
731.979
745.021
750.4
754.337
794.231
505.134
501.515
506.139
514.082
520.27
521.751
520.791
520.667
522.827
527.51
534.706
544.443
556.775
571.782
589.383
609.153
630.123
650.711
668.793
682.65
692.693
704.417
742.611
444.207
437.914
440.521
447.556
454.054
455.954
455.417
455.916
458.735
463.928
471.456
481.38
493.769
508.76
526.286
545.983
566.871
587.508
606.015
620.488
631.585
643.647
671.154
384.56
375.239
374.554
380.335
387.111
389.582
389.618
390.79
394.213
399.81
407.569
417.601
429.968
444.938
462.547
482.396
503.375
524.24
543.258
558.11
567.913
575.589
576.257
248.486
248.472
248.451
248.424
248.394
248.366
248.343
248.327
248.325
248.343
248.386
248.458
248.566
248.711
248.892
249.101
249.311
249.48
249.566
248.431
248.416
248.394
248.365
248.335
248.306
248.281
248.264
248.261
248.277
248.319
248.39
248.497
248.642
248.826
249.041
249.26
249.437
249.527
248.378
248.363
248.339
248.307
248.274
248.243
248.216
248.197
248.191
248.205
248.244
248.312
248.417
248.563
248.753
248.979
249.216
249.412
249.511
248.327
248.312
248.285
248.249
248.213
248.18
248.15
248.126
248.116
248.126
248.16
248.225
248.326
248.472
248.669
248.913
249.179
249.406
249.519
248.282
248.265
248.232
248.19
248.15
248.114
248.081
248.052
248.036
248.04
248.068
248.127
248.223
248.368
248.572
248.84
249.148
249.42
249.555
248.231
248.219
248.181
248.13
248.085
248.047
248.011
247.974
247.95
247.947
247.968
248.018
248.106
248.246
248.458
248.753
249.118
249.458
249.622
248.195
248.178
248.131
248.068
248.016
247.979
247.941
247.892
247.858
247.847
247.86
247.899
247.974
248.105
248.318
248.645
249.084
249.522
249.73
248.147
248.142
248.08
248.004
247.941
247.907
247.872
247.805
247.759
247.741
247.744
247.768
247.826
247.941
248.146
248.498
249.035
249.626
249.89
293.929
280.476
272.937
275.635
282.438
285.309
285.958
288.246
292.697
298.914
306.987
317.141
329.297
343.936
361.294
381.69
403.426
425.488
445.922
461.466
467.074
457.794
379.898
180.247
162.851
139.396
130.039
134.866
137.157
137.224
140.609
146.693
154.397
164.055
175.853
189.145
205.643
224.661
243.405
265.744
289.905
313.771
332.153
339.597
333.034
306.459
82.2095
61.1911
31.1701
22.5474
25.962
27.5116
27.7266
29.0717
31.5191
34.4324
37.7476
44.0878
50.4528
60.7374
75.2884
96.5891
123.022
155.8
189.606
213.269
229.205
238.576
245.732
19.1371
3.56549
0.197627
0.160137
0.219452
0.213568
0.22868
0.248549
0.283296
0.342987
0.447675
0.597553
1.52194
3.66009
6.66064
11.0602
20.0268
40.0142
72.1094
101.602
129.641
151.845
168.368
0.017192
-0.046527
-0.10564
-0.0195137
0.0419716
0.0639298
0.0814091
0.101298
0.127579
0.160312
0.18482
0.127959
0.0638456
0.0881087
0.173152
0.276308
0.34079
1.21156
6.76936
18.3725
40.0275
65.8498
91.0454
-0.109038
-0.129147
-0.0991496
-0.112095
-0.0989131
-0.0834303
-0.0680987
-0.0529142
-0.0361807
-0.0208713
-0.0175333
-0.0410301
-0.0596412
-0.0438006
0.0129463
0.100847
0.163169
0.167018
0.208374
0.274715
1.15063
10.9806
31.4891
-0.254609
-0.259248
-0.250882
-0.249244
-0.241723
-0.231642
-0.220714
-0.209835
-0.199431
-0.191708
-0.190954
-0.198897
-0.205441
-0.198534
-0.168372
-0.113137
-0.0942099
-0.164553
-0.198559
-0.233877
-0.395651
-0.296121
0.485755
-0.40399
-0.403554
-0.396265
-0.393117
-0.387655
-0.38069
-0.373147
-0.365959
-0.359838
-0.355887
-0.355674
-0.35936
-0.364776
-0.369234
-0.374416
-0.368478
-0.378889
-0.427595
-0.495944
-0.558139
-0.645665
-0.663184
-0.614489
-0.549228
-0.546485
-0.542337
-0.539469
-0.535344
-0.530451
-0.525341
-0.520813
-0.51749
-0.515834
-0.516226
-0.51894
-0.524521
-0.53538
-0.551654
-0.56855
-0.600966
-0.662064
-0.758425
-0.879846
-0.981223
-0.984337
-0.876621
-0.695676
-0.693164
-0.690077
-0.687407
-0.684212
-0.680662
-0.67715
-0.674289
-0.672581
-0.67227
-0.673395
-0.67635
-0.681735
-0.69224
-0.70651
-0.727746
-0.765497
-0.826287
-0.920191
-1.07144
-1.19211
-1.19308
-1.05471
-0.842554
-0.840564
-0.838276
-0.836135
-0.833639
-0.830983
-0.828448
-0.826486
-0.825489
-0.825672
-0.827114
-0.830139
-0.835393
-0.844096
-0.856817
-0.876381
-0.908501
-0.959403
-1.04017
-1.15596
-1.25016
-1.25943
-1.12927
-0.990145
-0.988648
-0.987011
-0.985317
-0.983337
-0.981267
-0.979312
-0.977786
-0.976985
-0.97713
-0.978376
-0.981035
-0.985537
-0.992901
-1.0031
-1.01921
-1.04406
-1.08403
-1.14536
-1.21531
-1.25784
-1.23369
-1.15947
-1.1384
-1.13744
-1.13619
-1.13482
-1.13318
-1.13147
-1.12983
-1.12848
-1.12762
-1.12748
-1.12822
-1.13014
-1.13355
-1.13911
-1.14728
-1.15937
-1.17692
-1.20382
-1.24338
-1.28326
-1.30375
-1.28572
-1.23267
-1.28733
-1.2867
-1.28571
-1.28455
-1.28313
-1.2816
-1.28008
-1.27873
-1.27769
-1.27716
-1.27727
-1.27826
-1.28038
-1.28404
-1.28964
-1.29779
-1.30925
-1.32499
-1.3437
-1.35916
-1.36396
-1.35104
-1.31698
-1.43683
-1.43638
-1.43555
-1.4345
-1.43317
-1.43169
-1.43016
-1.42867
-1.42736
-1.42634
-1.42574
-1.42571
-1.42642
-1.42807
-1.43087
-1.435
-1.44062
-1.44757
-1.45413
-1.45653
-1.45013
-1.43185
-1.40248
-1.58681
-1.58645
-1.58569
-1.58468
-1.58335
-1.58183
-1.58017
-1.57846
-1.57678
-1.57521
-1.57384
-1.57274
-1.572
-1.5717
-1.57187
-1.57245
-1.57324
-1.57358
-1.57199
-1.56639
-1.55446
-1.53458
-1.50703
-1.73724
-1.7369
-1.73616
-1.73511
-1.73373
-1.73209
-1.73024
-1.72823
-1.72612
-1.72396
-1.72179
-1.71962
-1.71749
-1.71536
-1.71318
-1.71076
-1.70776
-1.70353
-1.697
-1.68676
-1.67142
-1.65021
-1.62344
-1.88809
-1.88773
-1.88696
-1.88584
-1.88436
-1.88256
-1.88048
-1.87814
-1.87557
-1.8728
-1.86983
-1.86664
-1.86321
-1.85945
-1.85522
-1.85031
-1.84433
-1.83671
-1.82666
-1.81332
-1.79586
-1.77387
-1.74741
-2.03934
-2.03896
-2.03813
-2.03693
-2.03532
-2.03333
-2.03099
-2.0283
-2.02527
-2.02191
-2.01818
-2.01405
-2.00945
-2.00426
-1.99831
-1.99137
-1.98309
-1.97301
-1.96055
-1.94513
-1.92624
-1.90362
-1.87727
-2.19102
-2.1906
-2.18971
-2.18841
-2.18665
-2.18448
-2.18188
-2.17884
-2.17537
-2.17144
-2.16703
-2.16205
-2.15642
-2.15001
-2.14263
-2.13407
-2.12403
-2.11211
-2.09792
-2.08104
-2.06113
-2.03801
-2.01166
-2.34314
-2.34269
-2.34172
-2.34032
-2.33843
-2.33606
-2.33321
-2.32986
-2.32598
-2.32155
-2.31651
-2.31079
-2.30428
-2.29685
-2.28832
-2.27849
-2.26709
-2.25382
-2.23836
-2.22041
-2.19975
-2.17622
-2.1498
-2.49573
-2.49524
-2.49421
-2.49271
-2.49069
-2.48815
-2.48507
-2.48143
-2.47719
-2.47232
-2.46674
-2.46039
-2.45315
-2.4449
-2.43546
-2.42464
-2.41221
-2.39792
-2.38153
-2.36281
-2.34157
-2.31768
-2.29113
-2.64883
-2.6483
-2.6472
-2.64563
-2.64349
-2.6408
-2.63752
-2.63363
-2.62908
-2.62384
-2.61782
-2.61095
-2.60313
-2.59423
-2.58408
-2.57252
-2.55933
-2.5443
-2.52723
-2.50793
-2.48623
-2.46203
-2.43528
-2.80246
-2.8019
-2.80075
-2.79911
-2.79687
-2.79405
-2.79061
-2.78651
-2.78172
-2.77617
-2.76981
-2.76255
-2.75428
-2.74489
-2.73423
-2.72212
-2.70839
-2.69284
-2.6753
-2.65558
-2.63354
-2.60905
-2.58207
-2.95665
-2.95607
-2.95489
-2.95319
-2.95087
-2.94795
-2.94438
-2.94013
-2.93514
-2.92938
-2.92277
-2.91522
-2.90664
-2.89692
-2.8859
-2.87343
-2.85935
-2.84348
-2.82563
-2.80564
-2.78336
-2.75863
-2.73139
-3.11143
-3.11084
-3.10963
-3.10789
-3.10552
-3.10252
-3.09887
-3.09451
-3.08941
-3.0835
-3.07673
-3.06901
-3.06024
-3.05031
-3.03909
-3.02643
-3.01217
-2.99615
-2.97817
-2.95806
-2.93563
-2.91074
-2.88327
-3.26681
-3.26622
-3.26499
-3.26323
-3.26082
-3.25779
-3.25409
-3.24969
-3.24453
-3.23856
-3.23171
-3.22391
-3.21507
-3.20508
-3.1938
-3.1811
-3.16683
-3.15082
-3.13287
-3.11278
-3.09036
-3.06543
-3.03781
-3.42279
-3.42223
-3.42098
-3.41921
-3.4168
-3.41377
-3.41007
-3.40567
-3.40051
-3.39455
-3.38772
-3.37994
-3.37113
-3.36119
-3.34999
-3.33741
-3.32328
-3.30744
-3.28967
-3.26978
-3.24756
-3.22277
-3.1952
-3.57941
-3.57883
-3.57759
-3.57584
-3.57345
-3.57046
-3.5668
-3.56245
-3.55736
-3.55147
-3.54473
-3.53707
-3.5284
-3.51863
-3.50764
-3.4953
-3.48146
-3.46595
-3.44855
-3.42905
-3.40723
-3.38283
-3.35558
-3.73662
-3.73603
-3.73481
-3.73309
-3.73076
-3.72783
-3.72426
-3.72001
-3.71504
-3.7093
-3.70273
-3.69527
-3.68684
-3.67734
-3.66668
-3.65472
-3.64132
-3.62629
-3.60944
-3.59055
-3.56939
-3.54566
-3.51907
-3.89441
-3.89384
-3.8926
-3.89096
-3.8887
-3.88588
-3.88243
-3.87833
-3.87354
-3.86801
-3.86168
-3.8545
-3.8464
-3.83728
-3.82706
-3.8156
-3.80278
-3.7884
-3.77228
-3.75421
-3.73395
-3.71122
-3.68573
-4.05277
-4.05227
-4.05091
-4.0494
-4.04725
-4.04457
-4.04129
-4.03738
-4.03282
-4.02756
-4.02154
-4.01473
-4.00704
-3.9984
-3.98871
-3.97788
-3.96576
-3.95218
-3.93697
-3.91993
-3.90083
-3.87943
-3.85547
-4.21162
-4.21115
-4.20988
-4.20845
-4.20641
-4.20389
-4.20081
-4.19714
-4.19286
-4.18792
-4.18228
-4.1759
-4.1687
-4.16063
-4.15159
-4.14148
-4.13018
-4.11755
-4.10341
-4.08758
-4.06989
-4.05011
-4.02807
-4.37096
-4.37054
-4.36933
-4.36802
-4.36611
-4.3638
-4.36094
-4.35755
-4.35359
-4.34903
-4.34382
-4.33793
-4.3313
-4.32387
-4.31556
-4.30628
-4.29592
-4.28435
-4.27142
-4.25698
-4.24088
-4.22295
-4.20315
-4.53068
-4.53033
-4.52918
-4.52802
-4.52626
-4.52418
-4.52158
-4.5185
-4.5149
-4.51076
-4.50604
-4.5007
-4.4947
-4.48797
-4.48046
-4.47209
-4.46276
-4.45236
-4.44076
-4.42783
-4.41347
-4.39754
-4.38016
-4.69077
-4.6905
-4.68942
-4.68843
-4.68686
-4.68501
-4.6827
-4.67996
-4.67676
-4.67308
-4.66888
-4.66415
-4.65882
-4.65287
-4.64623
-4.63883
-4.63061
-4.62145
-4.61126
-4.59995
-4.58735
-4.57352
-4.55852
-4.85132
-4.85117
-4.85019
-4.84939
-4.84801
-4.84642
-4.84442
-4.84204
-4.83927
-4.83609
-4.83246
-4.82836
-4.82376
-4.81862
-4.8129
-4.80654
-4.79947
-4.79162
-4.78292
-4.77326
-4.7625
-4.75078
-4.73812
-5.01232
-5.01232
-5.01145
-5.01083
-5.00967
-5.00836
-5.00668
-5.00469
-5.00238
-4.99971
-4.99668
-4.99326
-4.98942
-4.98514
-4.98037
-4.97508
-4.96922
-4.96273
-4.95553
-4.94758
-4.93873
-4.92912
-4.91878
-5.17336
-5.1735
-5.17274
-5.1723
-5.17137
-5.17033
-5.169
-5.16741
-5.16557
-5.16344
-5.16103
-5.15831
-5.15526
-5.15185
-5.14807
-5.14389
-5.13926
-5.13415
-5.12849
-5.12226
-5.11539
-5.10789
-5.09987
-5.33412
-5.33435
-5.33374
-5.33346
-5.33277
-5.33201
-5.33103
-5.32985
-5.32848
-5.32691
-5.32512
-5.32311
-5.32085
-5.31834
-5.31556
-5.31248
-5.3091
-5.30537
-5.30128
-5.29679
-5.29188
-5.28653
-5.28085
-5.49504
-5.49533
-5.4949
-5.49478
-5.49435
-5.49386
-5.49323
-5.49247
-5.49159
-5.49057
-5.48941
-5.48811
-5.48665
-5.48503
-5.48324
-5.48128
-5.47914
-5.47681
-5.47429
-5.47157
-5.46858
-5.46543
-5.46212
-5.65759
-5.65811
-5.65787
-5.65794
-5.65775
-5.65756
-5.65729
-5.65698
-5.6566
-5.65617
-5.65567
-5.65511
-5.6545
-5.65382
-5.65309
-5.65231
-5.65148
-5.65061
-5.64972
-5.64882
-5.64792
-5.64706
-5.64625
171.97
248.667
249.187
248.405
237.754
239.211
247.158
247.924
235.572
238.841
247.474
247.801
184.354
214.362
247.393
247.937
122.418
174.576
244.998
244.728
59.4133
108.715
172.069
192.339
13.3708
42.9723
82.2921
115.616
-0.558996
3.31708
22.1029
41.2496
-0.798914
-0.832733
-0.462713
1.39808
-0.895492
-0.853795
-0.699074
-0.658526
-0.964658
-0.907289
-0.810156
-0.72885
-1.05277
-0.985316
-0.8989
-0.809744
-1.15588
-1.07985
-1.00201
-0.916912
-1.25934
-1.18957
-1.11316
-1.02828
-1.35722
-1.29595
-1.22559
-1.14628
-1.46623
-1.40879
-1.34374
-1.27041
-1.58484
-1.53092
-1.46937
-1.40113
-1.71003
-1.65829
-1.59994
-1.53577
-1.84069
-1.79067
-1.73495
-1.67429
-1.97561
-1.92698
-1.87353
-1.81555
-2.11407
-2.06638
-2.01436
-1.95909
-2.25551
-2.20836
-2.15722
-2.10355
-2.39958
-2.35252
-2.30158
-2.24829
-2.5461
-2.49868
-2.44712
-2.39297
-2.69503
-2.64686
-2.59398
-2.53759
-2.84648
-2.79732
-2.74255
-2.68276
-3.00067
-2.95051
-2.89361
-2.82968
-3.1579
-3.10699
-3.04816
-2.98007
-3.31853
-3.26743
-3.20738
-3.13596
-3.48282
-3.43242
-3.3725
-3.29956
-3.65092
-3.60243
-3.54446
-3.47307
-3.82281
-3.77753
-3.72376
-3.65825
-3.99822
-3.95734
-3.91003
-3.85529
-4.1766
-4.14091
-4.10156
-4.06077
-4.35719
-4.3268
-4.29538
-4.26748
-4.53884
-4.51349
-4.48861
-4.46824
-4.72159
-4.70047
-4.67964
-4.66165
-4.90527
-4.8879
-4.87008
-4.85249
-5.08938
-5.07577
-5.06122
-5.04528
-5.27342
-5.26377
-5.25325
-5.24118
-5.45785
-5.45244
-5.44676
-5.44057
-5.64538
-5.64471
-5.64481
-5.64627
248.151
248.091
247.995
247.894
247.805
247.785
247.774
247.663
247.591
247.565
247.551
247.548
247.568
247.642
247.809
248.179
248.907
249.833
250.191
247.873
247.848
247.792
247.69
247.519
247.617
247.636
247.455
247.358
247.318
247.278
247.217
247.142
247.091
247.089
247.252
248.02
249.314
250.519
247.636
247.63
247.613
247.38
246.895
246.744
247.36
247.161
246.935
247.024
246.995
246.873
246.673
246.379
245.993
245.25
244.716
245.434
250.887
247.482
247.299
247.469
246.978
246.234
244.473
245.217
246.548
246.429
246.826
246.869
246.654
246.323
245.547
244.971
243.237
239.574
235.367
254.63
245.85
237.724
241.186
247.187
245.514
234.704
217.47
243.91
245.339
246.965
247.079
246.42
245.858
244.66
244.399
242.548
240.474
237.675
251.957
202.705
175.473
173.222
200.605
216.862
182.833
120.401
162.641
195.018
224.376
236.749
230.7
242.221
244.094
242.177
238.476
241.805
241.148
269.103
130.891
121.445
116.028
125.642
136.716
123.857
101.93
117.709
155.82
186.854
190.603
164.723
174.045
205.242
180.347
184.625
234.018
300.62
474.349
54.2658
59.0954
60.1369
62.0859
64.9953
63.6585
59.6238
61.5767
72.5277
86.0595
99.342
105.059
124.177
162.361
185.361
255.074
407.377
663.956
971.901
6.04255
9.81484
11.9975
12.6977
13.2103
13.5803
13.5907
13.7439
14.9
19.2334
27.6694
38.3691
57.4499
93.526
183.67
367.259
645.322
945.354
1220.54
-0.434654
-0.282158
-0.204996
-0.162303
-0.118148
-0.0675268
-0.0273028
-0.0282242
-0.0509669
-0.0472106
0.131788
1.23346
5.71241
17.3546
66.409
251.123
576.437
874.764
1095.78
-0.590847
-0.483538
-0.396329
-0.322084
-0.255574
-0.199057
-0.154928
-0.123218
-0.0905198
-0.0354706
0.0517537
0.202679
0.608825
2.29644
11.6886
63.7204
349.565
644.045
817.382
-0.713883
-0.631926
-0.547114
-0.465839
-0.392729
-0.328626
-0.271758
-0.218384
-0.15885
-0.0760381
0.0443141
0.212166
0.443156
0.883859
2.85856
11.8531
163.573
405.022
535.439
-0.829114
-0.754563
-0.676916
-0.602335
-0.531456
-0.465573
-0.403278
-0.339837
-0.264682
-0.164928
-0.0270437
0.153394
0.345344
0.658101
1.74659
4.0191
108.675
244.957
317.765
-0.948365
-0.881754
-0.812918
-0.744041
-0.676316
-0.609833
-0.543464
-0.472506
-0.388421
-0.280741
-0.137736
0.0703576
0.228701
0.613334
2.38464
7.53671
75.6147
130.267
164.442
-1.07384
-1.01424
-0.952129
-0.888554
-0.824053
-0.758336
-0.689901
-0.615095
-0.527883
-0.421101
-0.285996
-0.111695
-0.0254729
-0.1573
0.569252
7.7903
44.4935
43.1401
87.3781
-1.20444
-1.15038
-1.09395
-1.03548
-0.974948
-0.911713
-0.844244
-0.769901
-0.686218
-0.592216
-0.490865
-0.388044
-0.347824
-0.863113
-1.42741
0.496141
29.3894
33.6989
64.6752
-1.33995
-1.29053
-1.23912
-1.1857
-1.12997
-1.07125
-1.00829
-0.939497
-0.864713
-0.787683
-0.715019
-0.661252
-0.626702
-0.862369
-1.04921
-0.405575
34.7714
53.7064
67.3162
-1.47947
-1.43432
-1.38769
-1.33955
-1.28965
-1.23753
-1.18229
-1.12313
-1.06095
-1.00008
-0.946863
-0.898882
-0.866765
-0.849524
-0.789052
-0.222283
35.3404
64.3847
69.1105
-1.62227
-1.58107
-1.53912
-1.4966
-1.45363
-1.41025
-1.3658
-1.31924
-1.2712
-1.22457
-1.18553
-1.1422
-1.12238
-1.0353
-1.10493
-1.00503
27.5585
57.867
63.4588
-1.76735
-1.72975
-1.69233
-1.65566
-1.62053
-1.5877
-1.55635
-1.52429
-1.49106
-1.45811
-1.43272
-1.40856
-1.40444
-1.33236
-1.53439
-1.52639
22.4894
46.5496
55.5704
-1.91369
-1.87909
-1.84576
-1.8148
-1.78792
-1.76657
-1.74907
-1.73126
-1.71187
-1.69176
-1.67831
-1.67175
-1.67847
-1.64537
-1.83807
-1.66147
18.4701
38.9724
51.1101
-2.06006
-2.02761
-1.9975
-1.97146
-1.9523
-1.94203
-1.9376
-1.93262
-1.92501
-1.91661
-1.91359
-1.92091
-1.93598
-1.94671
-2.14422
-0.933422
2.82216
9.55135
32.7868
-2.20542
-2.17388
-2.14551
-2.12279
-2.1096
-2.10825
-2.11436
-2.1209
-2.12557
-2.13141
-2.14204
-2.16216
-2.17992
-2.18666
-2.23783
-1.50863
3.87006
-4.67964
22.1283
-2.34903
-2.31671
-2.28791
-2.26572
-2.25494
-2.25807
-2.27062
-2.28721
-2.30926
-2.33954
-2.3723
-2.40487
-2.42426
-2.4582
-2.65533
-2.90066
-2.07526
1.02141
26.7968
-2.49073
-2.45559
-2.42356
-2.39775
-2.38336
-2.38247
-2.39377
-2.4153
-2.45588
-2.51474
-2.57257
-2.61589
-2.6429
-2.72224
-2.95747
-3.05146
-2.68504
-2.45049
33.7835
-2.63116
-2.59111
-2.55291
-2.5187
-2.49359
-2.47612
-2.47199
-2.48201
-2.52236
-2.59159
-2.66757
-2.72303
-2.75386
-2.86345
-3.12452
-3.40299
-3.15854
-2.33885
49.9609
-2.77189
-2.72486
-2.67852
-2.63106
-2.58783
-2.54447
-2.51033
-2.48581
-2.50685
-2.57791
-2.67944
-2.76018
-2.7802
-2.86149
-3.04529
-2.86568
-0.887156
5.90964
93.6976
-2.91581
-2.86153
-2.80355
-2.74192
-2.67623
-2.60339
-2.49796
-2.44556
-2.45633
-2.55672
-2.71642
-2.83671
-2.79887
-2.69404
-2.61294
-2.13377
9.64688
46.6403
125.467
-3.06569
-3.00412
-2.93506
-2.858
-2.76994
-2.6646
-2.53113
-2.4418
-2.43437
-2.58695
-2.83002
-3.00032
-2.93655
-2.62381
-2.48953
8.87146
28.9275
63.7464
126.945
-3.22516
-3.1578
-3.08011
-2.99279
-2.89468
-2.78041
-2.64922
-2.54573
-2.53324
-2.68822
-2.9784
-3.19038
-2.90823
-3.13327
5.27118
12.6061
20.6017
41.6931
85.7732
-3.39842
-3.32872
-3.24708
-3.16053
-3.07556
-2.99404
-2.91235
-2.82516
-2.78517
-2.84157
-2.96343
-2.92933
-3.31869
2.19616
7.51476
8.59786
10.5783
15.1359
32.6436
-3.59015
-3.52504
-3.4477
-3.3711
-3.31456
-3.30085
-3.30879
-3.26025
-3.14965
-3.03078
-2.94882
-2.33278
-0.81679
3.29889
6.14017
7.00649
7.22401
8.1535
12.1216
-3.80332
-3.75548
-3.69746
-3.63681
-3.60159
-3.64544
-3.75438
-3.73461
-3.54762
-3.29607
-3.16194
-2.99826
-0.670542
3.30426
5.48654
6.16284
6.33965
6.39112
8.31553
-4.03222
-4.01418
-3.99199
-3.95478
-3.92294
-3.96416
-4.07617
-4.06567
-3.81762
-3.48526
-3.28896
-3.28094
-1.15413
2.80586
4.6656
5.24523
5.6102
5.54965
7.76486
-4.25963
-4.26822
-4.27975
-4.26628
-4.22105
-4.19375
-4.207
-4.12363
-3.88908
-3.54449
-3.32656
-3.29073
-1.78969
1.88064
3.68449
4.08692
4.42917
4.04297
9.41537
-4.46756
-4.48181
-4.50258
-4.49847
-4.43957
-4.34326
-4.2355
-4.08738
-3.88904
-3.63703
-3.47489
-3.30739
-3.49419
0.22387
2.56184
2.91773
3.19093
1.61847
4.96632
-4.65648
-4.66027
-4.66723
-4.65674
-4.60038
-4.49227
-4.35582
-4.18598
-4.01063
-3.89243
-3.86845
-4.16822
-6.68452
-3.2072
1.12279
1.79423
2.16668
1.27719
1.5937
-4.84042
-4.83173
-4.82092
-4.79964
-4.75366
-4.67521
-4.56972
-4.43747
-4.31868
-4.28051
-4.31846
-4.46702
-4.50026
-3.36472
-0.607386
0.27987
0.708916
0.794478
2.05438
-5.03083
-5.01763
-5.00059
-4.9769
-4.94193
-4.89188
-4.82622
-4.74196
-4.66883
-4.6682
-4.658
-4.79376
-4.94638
-3.65624
-4.47981
-3.16453
-2.51192
-2.13783
-3.62111
-5.22942
-5.21854
-5.20496
-5.1878
-5.1657
-5.1369
-5.09883
-5.04887
-4.99812
-4.99516
-4.78752
-5.36264
-7.84755
-6.85994
-10.2956
-10.8751
-9.68937
-10.4724
-17.7001
-5.43501
-5.4303
-5.4249
-5.41861
-5.4111
-5.40166
-5.38915
-5.37402
-5.35802
-5.34765
-5.08295
-5.36032
-4.03967
3.0945
-44.7518
-39.2342
-24.3679
-24.5145
-29.7398
-5.64974
-5.65418
-5.66069
-5.66963
-5.68113
-5.69486
-5.71041
-5.73124
-5.7655
-5.83677
-5.91077
-6.51644
-7.60457
-8.20843
-27.4532
-72.0632
-35.9447
-35.9111
-36.7897
)
;

boundaryField
{
    leftWall
    {
        type            calculated;
        value           nonuniform List<scalar> 
50
(
810.914
751.11
690.275
628.708
566.832
505.134
444.207
384.56
293.929
180.247
82.2095
19.1371
0.017192
-0.109038
-0.254609
-0.40399
-0.549228
-0.695676
-0.842554
-0.990145
-1.1384
-1.28733
-1.43683
-1.58681
-1.73724
-1.88809
-2.03934
-2.19102
-2.34314
-2.49573
-2.64883
-2.80246
-2.95665
-3.11143
-3.26681
-3.42279
-3.57941
-3.73662
-3.89441
-4.05277
-4.21162
-4.37096
-4.53068
-4.69077
-4.85132
-5.01232
-5.17336
-5.33412
-5.49504
-5.65759
)
;
    }
    rightWall
    {
        type            calculated;
        value           nonuniform List<scalar> 
50
(
249.566
249.527
249.511
249.519
249.555
249.622
249.73
249.89
250.191
250.519
250.887
254.63
251.957
269.103
474.349
971.901
1220.54
1095.78
817.382
535.439
317.765
164.442
87.3781
64.6752
67.3162
69.1105
63.4588
55.5704
51.1101
32.7868
22.1283
26.7968
33.7835
49.9609
93.6976
125.467
126.945
85.7732
32.6436
12.1216
8.31553
7.76486
9.41537
4.96632
1.5937
2.05438
-3.62111
-17.7001
-29.7398
-36.7897
)
;
    }
    lowerWall
    {
        type            calculated;
        value           nonuniform List<scalar> 
62
(
840.344
841.386
848.319
858.271
863.794
864.575
862.381
860.312
860.424
863.477
869.617
878.876
891.459
907.136
926.211
948.548
973.316
997.961
1016.25
1024.42
1000.8
994.411
1037.47
1008.09
941.669
882.594
835.227
794.231
742.611
671.154
576.257
232.318
266.053
249.313
248.476
248.486
248.431
248.378
248.327
248.282
248.231
248.195
248.147
248.515
248.502
248.48
248.453
248.424
248.396
248.372
248.357
248.355
248.373
248.415
248.488
248.595
248.74
248.922
249.13
249.34
249.509
249.595
)
;
    }
    atmosphere
    {
        type            calculated;
        value           nonuniform List<scalar> 
46
(
-5.74031
-5.74129
-5.74107
-5.7412
-5.74115
-5.74112
-5.74106
-5.74098
-5.74088
-5.74076
-5.74063
-5.74048
-5.74032
-5.74016
-5.74001
-5.73986
-5.73975
-5.73968
-5.73968
-5.73977
-5.73999
-5.74037
-5.74095
-5.74197
-5.74401
-5.74754
-5.7537
-5.76296
-5.77346
-5.78805
-5.8076
-5.83247
-5.86152
-5.89238
-5.9285
-5.96966
-6.0096
-6.07299
-6.56307
-7.68443
-6.64604
-256.974
-185.846
-28.8983
-33.8233
-43.0605
)
;
    }
    defaultFaces
    {
        type            empty;
    }
}


// ************************************************************************* //
