/*--------------------------------*- C++ -*----------------------------------*\
| =========                 |                                                 |
| \\      /  F ield         | OpenFOAM: The Open Source CFD Toolbox           |
|  \\    /   O peration     | Version:  2206                                  |
|   \\  /    A nd           | Website:  www.openfoam.com                      |
|    \\/     M anipulation  |                                                 |
\*---------------------------------------------------------------------------*/
FoamFile
{
    version     2.0;
    format      ascii;
    arch        "LSB;label=32;scalar=64";
    class       volScalarField;
    location    "0.425";
    object      p_rgh;
}
// * * * * * * * * * * * * * * * * * * * * * * * * * * * * * * * * * * * * * //

dimensions      [1 -1 -2 0 0 0 0];

internalField   nonuniform List<scalar> 
2268
(
840.344
841.386
848.319
858.271
863.794
864.575
862.381
860.312
860.424
863.477
869.617
878.876
891.459
907.136
926.211
948.548
973.316
997.961
1016.25
1024.42
1000.8
994.411
1037.47
839.398
839.954
847.01
856.781
862.383
863.2
861.098
859.177
859.442
862.621
868.839
878.097
890.287
905.638
924.106
945.696
969.932
995.218
1016.28
1028.38
998.012
980.815
1029.81
837.421
837.505
844.382
853.862
859.577
860.481
858.565
856.934
857.502
860.926
867.303
876.622
888.87
904.149
922.339
943.17
965.89
989.126
1009.78
1023.35
1003.48
982.623
1029.49
834.714
834.066
840.521
849.626
855.47
856.516
854.874
853.66
854.664
858.438
865.043
874.475
886.75
901.916
919.847
940.175
961.965
983.544
1002.37
1015.21
1013
1001.98
1040.98
831.696
829.893
835.626
844.255
850.246
851.477
850.162
849.458
851
855.199
862.081
871.654
883.954
899.031
916.765
936.739
957.996
978.835
996.843
1009.89
1015.26
1019.2
1058.8
828.857
825.238
829.862
837.805
843.993
845.474
844.514
844.39
846.55
851.233
858.429
868.166
880.498
895.505
913.105
932.876
953.846
974.434
992.516
1006.37
1016.42
1028.14
1065.98
826.788
820.495
823.103
830.138
836.635
838.535
837.998
838.498
841.317
846.51
854.038
863.962
876.351
891.341
908.867
928.565
949.453
970.089
988.597
1003.07
1014.17
1026.23
1053.32
826.001
816.68
815.993
821.769
828.546
831.02
831.057
832.23
835.653
841.25
849.01
859.041
871.408
886.378
903.987
923.837
944.815
965.68
984.698
999.55
1009.35
1017.03
1017.38
248.515
248.502
248.48
248.453
248.424
248.396
248.372
248.357
248.355
248.373
248.415
248.488
248.595
248.74
248.922
249.13
249.34
249.509
249.595
248.519
248.504
248.482
248.454
248.423
248.394
248.369
248.352
248.349
248.366
248.407
248.478
248.585
248.73
248.915
249.129
249.348
249.525
249.616
248.525
248.51
248.486
248.454
248.421
248.39
248.364
248.344
248.338
248.352
248.391
248.459
248.564
248.71
248.9
249.126
249.363
249.559
249.658
248.533
248.518
248.491
248.455
248.419
248.386
248.356
248.332
248.322
248.332
248.366
248.431
248.532
248.678
248.875
249.119
249.385
249.612
249.725
248.546
248.53
248.497
248.455
248.415
248.379
248.346
248.317
248.301
248.305
248.333
248.392
248.488
248.632
248.837
249.105
249.413
249.685
249.82
248.555
248.543
248.505
248.454
248.408
248.371
248.335
248.297
248.273
248.271
248.292
248.342
248.43
248.57
248.781
249.077
249.442
249.782
249.946
248.577
248.561
248.514
248.451
248.399
248.361
248.324
248.274
248.24
248.23
248.242
248.281
248.357
248.488
248.701
249.027
249.466
249.905
250.113
248.59
248.584
248.522
248.445
248.382
248.349
248.314
248.247
248.2
248.183
248.185
248.21
248.268
248.382
248.587
248.939
249.476
250.071
250.338
827.396
813.943
806.372
809.022
815.837
818.732
819.4
821.701
826.158
832.379
840.453
850.607
862.763
877.403
894.761
915.157
936.893
958.955
979.389
994.933
1000.54
991.261
913.365
838.909
821.425
791.084
770.614
780.653
787.162
788.696
794.321
802.924
812.387
822.641
834.477
847.79
864.3
883.322
902.067
924.406
948.567
972.432
990.815
998.258
991.695
965.12
845.417
675.288
389.605
303.582
347.099
367.593
371.126
389.344
421.866
460.386
503.663
555.735
610.335
678.479
757.915
857.111
906.877
939.656
973.462
997.125
1013.06
1022.43
1029.59
292.98
53.2232
1.10668
1.06919
1.1285
1.12262
1.13773
1.1576
1.19235
1.25204
1.35673
6.18228
25.7901
57.3224
102.41
169.977
307.81
573.628
933.388
1010.65
1038.69
1060.9
1077.42
1.05144
0.987718
0.928605
1.01473
1.07622
1.09817
1.11565
1.13554
1.16182
1.19456
1.21907
1.1622
1.09809
1.12236
1.20756
1.31205
1.40215
23.7575
117.183
319.59
722.395
1100.05
1125.29
1.0504
1.03029
1.06029
1.04734
1.06053
1.07601
1.09134
1.10653
1.12326
1.13858
1.14193
1.11841
1.0998
1.12234
1.22945
1.42067
1.47676
1.46627
1.50842
1.57476
39.7234
235.502
660.903
1.03003
1.02539
1.03375
1.03539
1.04291
1.05299
1.06392
1.0748
1.0852
1.09297
1.09391
1.08574
1.07921
1.1451
1.54903
1.81702
1.83112
1.67251
1.4324
1.40038
1.40442
1.53469
16.5189
1.00584
1.00627
1.01356
1.01671
1.02217
1.02914
1.03668
1.04387
1.04999
1.05402
1.05441
1.05053
1.0451
1.1266
1.36271
1.55501
1.73786
1.68792
1.6167
1.52469
1.39855
1.1275
1.0465
0.985796
0.988538
0.992686
0.995554
0.999679
1.00457
1.00968
1.01421
1.01753
1.01924
1.01908
1.01623
1.01331
1.03635
0.98337
0.966473
1.07784
1.41616
1.01301
0.98046
1.32457
0.969342
0.823289
0.964542
0.967054
0.970141
0.972811
0.976006
0.979556
0.983068
0.985929
0.987638
0.987958
0.986958
0.984212
0.980805
0.967978
0.953708
0.932472
0.894721
0.833992
0.96851
0.828926
0.777089
0.63635
0.77427
0.942859
0.944848
0.947136
0.949277
0.951773
0.95443
0.956964
0.958927
0.959925
0.959747
0.958305
0.95535
0.950188
0.94132
0.928596
0.909031
0.876915
0.919336
1.21514
1.07735
0.739796
0.70978
0.838106
0.920462
0.921959
0.923596
0.92529
0.92727
0.92934
0.931295
0.93282
0.933622
0.933486
0.932239
0.929577
0.925075
0.917711
0.907509
0.891401
0.866547
0.854243
1.16903
1.40342
1.4128
1.43695
1.47188
0.897398
0.898366
0.899616
0.900986
0.902618
0.904332
0.905972
0.90732
0.908185
0.908332
0.907588
0.905668
0.902258
0.896697
0.888521
0.876434
0.858884
0.831985
0.792424
0.752541
0.87187
1.18139
1.31421
0.873669
0.874295
0.875285
0.876444
0.877867
0.879398
0.880916
0.88227
0.883303
0.883841
0.883735
0.88275
0.880631
0.876955
0.871352
0.863202
0.85175
0.836005
0.817291
0.801841
0.797037
0.809957
0.86078
0.849361
0.849813
0.850642
0.851689
0.853016
0.854496
0.856034
0.857518
0.858831
0.859848
0.860448
0.860486
0.859777
0.858117
0.85532
0.851192
0.845568
0.838623
0.832064
0.829661
0.836056
0.854345
0.883713
0.82457
0.824937
0.825692
0.82671
0.82803
0.829556
0.831215
0.832926
0.834606
0.836173
0.837547
0.838646
0.839385
0.839686
0.839517
0.838931
0.838142
0.83781
0.839393
0.844995
0.856925
0.87681
0.90436
0.79934
0.799679
0.800424
0.801471
0.802851
0.804491
0.806341
0.808346
0.810455
0.812618
0.814794
0.816959
0.819093
0.821215
0.823402
0.825824
0.828824
0.833052
0.83958
0.849815
0.865162
0.88637
0.913144
0.773685
0.774043
0.774817
0.77593
0.777413
0.779213
0.781298
0.783637
0.786203
0.788976
0.791948
0.795132
0.798562
0.802324
0.80655
0.811466
0.817446
0.825068
0.835112
0.848457
0.86591
0.887909
0.914362
0.747626
0.748008
0.748837
0.75004
0.751653
0.753636
0.755978
0.758666
0.761694
0.765062
0.76879
0.772915
0.777516
0.78271
0.788659
0.7956
0.803879
0.813963
0.826421
0.841841
0.860727
0.883353
0.909698
0.721144
0.72156
0.722456
0.723758
0.725511
0.727686
0.730288
0.73332
0.736791
0.740718
0.745138
0.750112
0.75574
0.762155
0.769529
0.778088
0.788137
0.80005
0.814245
0.831126
0.851032
0.874153
0.900498
0.694218
0.694672
0.695639
0.697038
0.698931
0.701294
0.704145
0.707499
0.711377
0.715811
0.720849
0.726568
0.733076
0.740507
0.749034
0.758867
0.770269
0.783542
0.799002
0.816943
0.837606
0.861138
0.887555
0.66682
0.667312
0.668347
0.669839
0.671864
0.674401
0.677479
0.681122
0.68536
0.690235
0.695808
0.702161
0.709399
0.717655
0.727094
0.737913
0.750342
0.764629
0.78102
0.799743
0.820987
0.844874
0.871424
0.63892
0.639446
0.640543
0.642116
0.644258
0.646949
0.650227
0.654119
0.658664
0.663911
0.669926
0.676795
0.684618
0.693522
0.703665
0.71523
0.72842
0.743448
0.760518
0.77982
0.801514
0.825719
0.852462
0.610486
0.611042
0.612188
0.613829
0.616071
0.618891
0.622334
0.626431
0.631226
0.636769
0.64313
0.650395
0.658663
0.668052
0.678714
0.690822
0.704554
0.720099
0.737644
0.757363
0.779405
0.803893
0.830876
0.581487
0.582065
0.58325
0.584946
0.587265
0.590187
0.593757
0.59801
0.602991
0.608753
0.615367
0.622914
0.631493
0.641219
0.652238
0.664706
0.678787
0.694658
0.712503
0.732492
0.754781
0.779506
0.80675
0.551901
0.552492
0.553702
0.555439
0.557815
0.560807
0.564465
0.568821
0.573923
0.579828
0.586602
0.594325
0.603091
0.613018
0.624238
0.636899
0.651156
0.667179
0.685158
0.705273
0.727695
0.752585
0.780065
0.521715
0.522303
0.523532
0.525294
0.527701
0.530732
0.534432
0.538838
0.543997
0.549967
0.556815
0.564612
0.573452
0.583449
0.594726
0.607423
0.621692
0.637705
0.655659
0.675747
0.698161
0.723092
0.75071
0.490928
0.491489
0.492735
0.494504
0.496915
0.499947
0.503647
0.50805
0.513205
0.519169
0.526004
0.533779
0.542585
0.552528
0.563726
0.576311
0.590439
0.606284
0.624047
0.643937
0.666161
0.690949
0.718524
0.459506
0.460084
0.461322
0.463075
0.465461
0.468457
0.472114
0.476464
0.481556
0.487443
0.494183
0.501844
0.510512
0.520284
0.531276
0.543613
0.557451
0.572967
0.590367
0.609862
0.63168
0.656081
0.683338
0.427488
0.428074
0.429301
0.431013
0.43335
0.436274
0.439847
0.444095
0.449066
0.454808
0.461375
0.468836
0.477268
0.486764
0.497429
0.509387
0.52279
0.537816
0.554667
0.573556
0.594723
0.61845
0.645034
0.394892
0.395463
0.396701
0.398344
0.400603
0.403423
0.406871
0.41097
0.415765
0.421297
0.42762
0.434798
0.442904
0.45202
0.462245
0.473699
0.486528
0.500904
0.517021
0.53509
0.555349
0.578079
0.60357
0.361732
0.362228
0.363586
0.365093
0.367245
0.369928
0.373212
0.377116
0.381679
0.386941
0.392953
0.399771
0.407462
0.416102
0.425783
0.436615
0.448739
0.462315
0.477524
0.494566
0.513663
0.535068
0.559032
0.328067
0.328538
0.329817
0.331246
0.333287
0.3358
0.338885
0.342552
0.346835
0.351772
0.357408
0.363795
0.370991
0.379067
0.388106
0.398212
0.40951
0.422145
0.436285
0.452107
0.469807
0.489586
0.511625
0.293926
0.294343
0.295556
0.296868
0.298778
0.301091
0.303947
0.307338
0.311297
0.315859
0.321063
0.326952
0.333582
0.341016
0.349329
0.35861
0.36897
0.380541
0.393469
0.407907
0.424011
0.441933
0.461737
0.259398
0.259749
0.260903
0.262059
0.263819
0.265904
0.268504
0.271585
0.275182
0.279323
0.284042
0.28938
0.295384
0.302108
0.309617
0.317987
0.327317
0.337721
0.349323
0.362247
0.376607
0.392546
0.409924
0.22451
0.22478
0.225856
0.226842
0.228421
0.230263
0.232579
0.235319
0.238517
0.242198
0.246391
0.25113
0.256455
0.26241
0.26905
0.276442
0.28467
0.293827
0.304013
0.315328
0.327929
0.341756
0.356755
0.189151
0.189304
0.190283
0.191082
0.19246
0.194045
0.196053
0.198426
0.201196
0.204384
0.208013
0.212111
0.216709
0.221846
0.227567
0.233929
0.240998
0.248846
0.257554
0.267206
0.277968
0.289691
0.302347
0.153347
0.153346
0.154219
0.154834
0.155992
0.157309
0.158987
0.160971
0.163289
0.165955
0.168988
0.172408
0.176244
0.180526
0.185291
0.19058
0.196442
0.202937
0.21013
0.21808
0.22693
0.236544
0.246886
0.117503
0.117364
0.118121
0.118562
0.119489
0.120528
0.121862
0.123444
0.125292
0.127417
0.129831
0.132553
0.135604
0.139006
0.142786
0.146971
0.151598
0.156713
0.162367
0.168604
0.175467
0.182967
0.190992
0.0819289
0.0817052
0.0823181
0.0825957
0.0832803
0.08404
0.0850263
0.0861998
0.0875703
0.0891437
0.0909308
0.092945
0.095201
0.0977136
0.100497
0.10357
0.106955
0.110679
0.114772
0.11926
0.124178
0.129522
0.135209
0.0462094
0.045922
0.0463474
0.0464632
0.0469002
0.0473833
0.0480197
0.0487784
0.0496628
0.0506791
0.0518361
0.0531421
0.0546029
0.0562231
0.0580085
0.0599672
0.0621071
0.0644347
0.0669585
0.0696813
0.0726698
0.075815
0.0791311
0.00885546
0.00833051
0.00856929
0.00850469
0.0086928
0.00888573
0.00914924
0.00946697
0.00984194
0.010277
0.0107731
0.0113294
0.0119447
0.0126187
0.0133508
0.0141368
0.0149669
0.0158294
0.0167204
0.0176215
0.0185192
0.019382
0.0201895
686.268
396.838
250.265
249.003
896.415
694.215
276.99
248.727
1019.43
845.208
311.598
248.617
1093.4
1122.47
454.882
248.857
1156.66
1208.67
1091.42
308.618
1216.52
1267.55
1329.16
1115.31
338.086
1049.65
1355.08
1371.83
1.23861
117.364
534.213
973.696
0.90978
0.911406
1.71198
60.066
0.934033
1.0009
1.20702
1.48221
1.00241
1.12203
1.64248
1.73655
1.52812
1.58359
1.57578
1.2767
1.43842
1.32937
1.06744
1.11893
0.939268
0.972364
1.04785
1.13273
0.928968
0.990244
1.0606
1.13992
0.945158
1.00259
1.06766
1.14099
0.951736
1.00567
1.06721
1.13546
0.951746
1.00349
1.06183
1.12601
0.946283
0.996298
1.05202
1.11268
0.93655
0.985186
1.03863
1.09662
0.923291
0.970976
1.023
1.07827
0.907045
0.954195
1.00533
1.059
0.888165
0.935227
0.986165
1.03945
0.866842
0.914266
0.965817
1.01997
0.843108
0.891273
0.944157
1.00055
0.816855
0.866005
0.920782
0.980572
0.787858
0.838017
0.894918
0.958849
0.755816
0.806733
0.86556
0.933645
0.720386
0.771487
0.831534
0.902959
0.681291
0.731686
0.79161
0.864553
0.638378
0.686875
0.744846
0.816236
0.591683
0.63697
0.690738
0.75625
0.541473
0.582351
0.629657
0.684399
0.488291
0.523975
0.563322
0.604117
0.432894
0.463279
0.494697
0.522604
0.376433
0.401781
0.426662
0.447036
0.318881
0.34
0.360835
0.378822
0.260397
0.27776
0.295585
0.31317
0.201482
0.215089
0.229639
0.245581
0.142632
0.152283
0.162805
0.174872
0.0833975
0.0888046
0.0944834
0.100682
0.0210605
0.0217299
0.021632
0.0201737
248.687
248.625
248.528
248.427
248.339
248.318
248.308
248.196
248.125
248.099
248.084
248.081
248.102
248.175
248.343
248.712
249.449
250.397
250.783
248.541
248.507
248.451
248.349
248.178
248.292
248.295
248.118
248.031
247.977
247.937
247.875
247.8
247.75
247.748
247.915
248.896
250.572
251.606
248.424
248.414
248.397
248.164
247.694
247.993
248.205
247.952
247.802
247.808
247.779
247.657
247.459
247.163
246.781
246.07
247.024
255.74
255.032
248.391
248.208
248.378
247.887
247.143
245.388
298.147
247.461
247.338
247.735
247.779
247.563
247.232
246.477
245.901
244.192
242.265
252.422
269.786
266.11
380.425
380.621
248.221
247.626
312.61
777.435
304.867
246.378
248.621
248.113
247.513
246.893
245.719
245.473
243.625
241.572
247.147
643.679
1006.49
1106.72
1186.82
1084.28
972.591
995.616
1186.13
1229.82
1109.24
764.187
431.856
524.363
304.684
245.304
304.382
344.314
255.879
271.189
1221.29
1370.87
1343.35
1324.92
1331.32
1347.69
1344.82
1325.02
1340.8
1378.91
1407
1341.23
1321.29
1273.57
1026.36
1193.76
1242.56
632.813
879.032
1641.38
1213.37
1295.31
1328.28
1327.54
1326.11
1327.67
1331.16
1346.39
1398.98
1412.92
1419.31
1421.84
1435.44
1468.37
1485.74
1558.09
1712.17
1968.83
2273.57
165.849
258.811
314.388
330.563
341.874
350.528
351.164
353.635
378.584
484.804
696.467
944.883
1339.41
1505.13
1602.42
1787.92
2066.13
2366.1
2641.29
1.67891
1.55435
1.67762
1.73343
1.78112
1.83536
1.84754
1.80777
1.78906
1.8936
6.094
33.8447
140.827
287.741
675.968
1680.47
2112.97
2411.39
2468.26
1.57076
1.30533
1.39483
1.47017
1.53612
1.59164
1.62872
1.65933
1.69437
1.74948
1.84421
2.02047
2.60148
5.48511
20.2211
701.169
1953.03
2293.84
2165.62
1.20952
1.27877
1.36364
1.44491
1.51799
1.5821
1.63896
1.69245
1.7521
1.83479
1.95535
2.12455
2.38142
3.01825
6.27372
257.744
1747.13
2160.8
1964.65
1.2067
1.28125
1.35889
1.43347
1.50437
1.57031
1.63263
1.69629
1.7715
1.87109
2.00902
2.19002
2.38299
2.72233
4.41399
452.884
1840.4
2110.71
1874.34
1.21264
1.27925
1.34809
1.41696
1.4847
1.55125
1.61762
1.68859
1.77272
1.8804
2.0235
2.23158
2.40029
3.05752
13.5541
947.467
2013.42
2108.77
1609.68
1.21236
1.27196
1.33407
1.39764
1.46215
1.52937
1.60003
1.67265
1.75858
1.86865
2.00047
2.17537
2.29402
2.74013
64.6478
1298.56
2085.93
1960.99
698.738
1.20696
1.26102
1.31745
1.37591
1.43645
1.50174
1.57321
1.64754
1.72657
1.82298
1.92131
2.02459
2.08095
1.91446
43.6608
1218.79
2170.86
1172.94
441.479
1.19664
1.24606
1.29747
1.35089
1.40662
1.46534
1.531
1.60346
1.67312
1.75079
1.87539
1.88513
1.9256
1.80563
15.0429
1112.85
2244.03
782.015
459.459
1.18231
1.2275
1.2742
1.32231
1.37213
1.42428
1.47973
1.5392
1.60138
1.66251
1.78336
1.77986
1.81257
1.82925
3.29081
933.301
2290.15
1102.57
480.696
1.16475
1.20603
1.24798
1.29049
1.33336
1.37673
1.42332
1.47042
1.51701
1.56272
1.67332
1.70996
1.718
1.84341
2.72068
702.144
2062.07
1752.21
621.649
1.14486
1.18252
1.21997
1.25659
1.29167
1.32448
1.35738
1.3907
1.423
1.45431
1.50728
1.61554
1.60862
1.69308
2.19885
628.644
1949.2
1804.89
624.04
1.12366
1.15827
1.19162
1.22257
1.24956
1.2708
1.28832
1.30656
1.32605
1.34584
1.3597
1.45029
1.44694
1.50686
2.16045
723.737
1806.36
940.105
644.018
1.10249
1.13494
1.16506
1.19109
1.21031
1.22209
1.22513
1.23006
1.23767
1.24608
1.24912
1.37899
1.34844
1.37199
2.10078
573.098
1386.84
1133.21
650.133
1.08233
1.11387
1.14224
1.16496
1.17815
1.18276
1.17475
1.16699
1.17102
1.15902
1.16663
1.34119
1.30281
1.29678
4.59689
71.0299
577.883
1278.94
1195.8
1.06391
1.09624
1.12505
1.14723
1.158
1.15659
1.15986
1.13682
1.22146
1.23152
1.23127
1.22323
1.1779
1.86317
6.77158
1.05928
1.95958
1068.4
1381.77
1.04741
1.08255
1.11459
1.14039
1.15495
1.15578
1.17998
1.22709
1.27443
1.22037
1.16568
1.0346
1.09554
2.06838
1.24889
1.05373
1.42015
648.077
1439.08
1.03217
1.07222
1.11043
1.14463
1.17049
1.18744
1.2246
1.37062
1.33411
1.27094
1.1391
0.97368
1.09508
1.23155
1.06293
0.833815
1.1154
521.811
1501.6
1.01663
1.06367
1.11001
1.15747
1.20137
1.24435
1.31608
1.42214
1.47373
1.3863
1.14361
1.05764
1.08135
0.970309
5.37584
3.85945
4.05768
745.224
1580.91
0.99791
1.05219
1.11017
1.1718
1.23749
1.31083
1.45337
1.48777
1.49152
1.39199
1.24224
1.10727
1.14511
1.25498
7.10314
79.9343
25.4193
1085.73
1642.46
0.973225
1.03479
1.10385
1.18092
1.26897
1.37517
1.51646
1.59901
1.60724
1.46909
1.72434
1.08773
1.13587
1.45055
155.424
275.236
202.122
1177.97
1673.77
0.938951
1.00631
1.084
1.17132
1.26944
1.38391
1.51645
1.62005
1.63283
1.47868
1.36738
1.43464
1.29223
163.556
296.922
287.503
136.889
777.161
1661.57
0.890878
0.960582
1.04223
1.12889
1.2139
1.29587
1.38255
1.47074
1.50757
1.45149
1.33028
1.40771
197.421
223.077
164.809
53.5829
21.6998
122.446
1629.15
0.824344
0.889455
0.966805
1.04502
1.11952
1.13946
1.1218
1.16613
1.26974
1.38823
1.47014
48.8733
223.209
230.626
71.2223
17.7752
15.9875
18.8676
1555.46
0.736371
0.784213
0.84225
0.903941
1.19174
1.81157
1.56521
0.926416
0.997395
1.24821
1.38114
74.301
235.407
234.005
45.1192
15.1744
14.9584
15.3461
1367.26
0.632662
0.650712
0.672939
0.710959
1.16501
2.06861
1.95444
1.03908
0.853001
1.18368
1.37829
91.0657
249.908
244.585
39.9404
14.1009
14.4356
14.4061
1400.72
0.530454
0.521858
0.510327
0.523818
0.690883
1.70768
1.98768
1.72183
0.906878
1.25087
1.46525
99.2018
269.225
262.844
43.4415
13.1489
13.4914
13.1052
1682.96
0.447714
0.433466
0.412701
0.416802
0.475703
0.572331
1.67526
1.90768
1.14575
1.28464
1.44184
71.7674
293.967
320.826
57.4571
12.2678
12.49
49.0579
1819.61
0.383989
0.380197
0.373238
0.383733
0.440091
0.548196
0.684652
1.44854
1.44644
1.16018
1.17296
6.87232
280.82
382.213
119.746
11.6077
11.7551
153.529
1874.68
0.325247
0.333932
0.344743
0.366029
0.412006
0.490459
0.595946
0.728192
0.964563
0.922078
0.847401
0.700053
190.664
404.591
194.848
10.9761
10.7661
291.968
1916.2
0.260033
0.273228
0.290268
0.313956
0.34893
0.398984
0.464636
0.548894
0.622034
0.622661
0.632858
0.497298
152.829
433.259
342.943
14.4152
8.44359
284.678
1844.88
0.186633
0.197513
0.211091
0.228254
0.250357
0.279152
0.317226
0.367179
0.417934
0.420897
0.628531
0.0551029
260.626
456.189
460.489
80.5119
3.11177
161.831
686.388
0.106235
0.110944
0.116348
0.122636
0.130147
0.139584
0.152096
0.167228
0.183226
0.1936
0.458295
7.04822
114.845
483.626
436.916
329.508
-2.09213
13.1811
31.874
0.0167014
0.0122608
0.00575579
-0.00318507
-0.0146915
-0.0284141
-0.0439713
-0.0647976
-0.0990548
-0.170327
-0.244329
-0.849998
-1.93813
-2.54198
226.713
111.752
-7.36213
-2.45741
5.80025
)
;

boundaryField
{
    leftWall
    {
        type            fixedFluxPressure;
        gradient        uniform 0;
        value           nonuniform List<scalar> 
50
(
840.344
839.398
837.421
834.714
831.696
828.857
826.788
826.001
827.396
838.909
845.417
292.98
1.05144
1.0504
1.03003
1.00584
0.985796
0.964542
0.942859
0.920462
0.897398
0.873669
0.849361
0.82457
0.79934
0.773685
0.747626
0.721144
0.694218
0.66682
0.63892
0.610486
0.581487
0.551901
0.521715
0.490928
0.459506
0.427488
0.394892
0.361732
0.328067
0.293926
0.259398
0.22451
0.189151
0.153347
0.117503
0.0819289
0.0462094
0.00885546
)
;
    }
    rightWall
    {
        type            fixedFluxPressure;
        gradient        uniform 0;
        value           nonuniform List<scalar> 
50
(
249.595
249.616
249.658
249.725
249.82
249.946
250.113
250.338
250.783
251.606
255.032
269.786
643.679
1221.29
1641.38
2273.57
2641.29
2468.26
2165.62
1964.65
1874.34
1609.68
698.738
441.479
459.459
480.696
621.649
624.04
644.018
650.133
1195.8
1381.77
1439.08
1501.6
1580.91
1642.46
1673.77
1661.57
1629.15
1555.46
1367.26
1400.72
1682.96
1819.61
1874.68
1916.2
1844.88
686.388
31.874
5.80025
)
;
    }
    lowerWall
    {
        type            fixedFluxPressure;
        gradient        uniform 0;
        value           nonuniform List<scalar> 
62
(
840.344
841.386
848.319
858.271
863.794
864.575
862.381
860.312
860.424
863.477
869.617
878.876
891.459
907.136
926.211
948.548
973.316
997.961
1016.25
1024.42
1000.8
994.411
1037.47
1037.47
1029.81
1029.49
1040.98
1058.8
1065.98
1053.32
1017.38
686.268
396.838
250.265
249.003
248.515
248.519
248.525
248.533
248.546
248.555
248.577
248.59
248.515
248.502
248.48
248.453
248.424
248.396
248.372
248.357
248.355
248.373
248.415
248.488
248.595
248.74
248.922
249.13
249.34
249.509
249.595
)
;
    }
    atmosphere
    {
        type            totalPressure;
        rho             rho;
        psi             none;
        gamma           1;
        p0              uniform 0;
        value           nonuniform List<scalar> 
46
(
-0.0112741
-0.0122458
-0.0120349
-0.0121599
-0.0121099
-0.0120814
-0.01202
-0.0119385
-0.0118388
-0.0117214
-0.0115878
-0.0114406
-0.0112844
-0.0111249
-0.010968
-0.0108244
-0.0107077
-0.0106375
-0.0106353
-0.0107295
-0.0109489
-0.0113295
-0.0119109
-0.0129347
-0.0149717
-0.0184987
-0.0246609
-0.0339184
-0.0444232
-0.0590059
-0.078565
-0.103431
-0.13248
-0.163343
-0.199456
-0.240623
-0.280555
-0.343952
-0.834032
-1.95539
-0.917003
0
0
0
0
0
)
;
    }
    defaultFaces
    {
        type            empty;
    }
}


// ************************************************************************* //
