/*--------------------------------*- C++ -*----------------------------------*\
| =========                 |                                                 |
| \\      /  F ield         | OpenFOAM: The Open Source CFD Toolbox           |
|  \\    /   O peration     | Version:  2206                                  |
|   \\  /    A nd           | Website:  www.openfoam.com                      |
|    \\/     M anipulation  |                                                 |
\*---------------------------------------------------------------------------*/
FoamFile
{
    version     2.0;
    format      ascii;
    arch        "LSB;label=32;scalar=64";
    class       surfaceScalarField;
    location    "0.425";
    object      phi;
}
// * * * * * * * * * * * * * * * * * * * * * * * * * * * * * * * * * * * * * //

dimensions      [0 3 -1 0 0 0 0];

oriented        oriented;

internalField   nonuniform List<scalar> 
4432
(
-3.61965e-06
3.61965e-06
-3.46086e-06
-1.58789e-07
6.11332e-07
-4.07219e-06
6.64092e-06
-6.02959e-06
1.30921e-05
-6.45115e-06
1.8849e-05
-5.75693e-06
2.34467e-05
-4.59769e-06
2.68645e-05
-3.41783e-06
2.9281e-05
-2.4165e-06
3.0917e-05
-1.636e-06
3.19544e-05
-1.03739e-06
3.24939e-05
-5.3949e-07
3.24998e-05
-5.8916e-09
3.17202e-05
7.79601e-07
2.97732e-05
1.94699e-06
2.60777e-05
3.69546e-06
1.99043e-05
6.17344e-06
1.10079e-05
8.89646e-06
1.302e-06
9.70584e-06
-7.14708e-06
8.44909e-06
-1.61896e-05
9.04248e-06
-1.63664e-05
1.76795e-07
-1.63664e-05
-3.73068e-06
7.35033e-06
-3.19891e-06
-6.90559e-07
9.33563e-07
-8.20466e-06
6.99485e-06
-1.20909e-05
1.33992e-05
-1.28555e-05
1.9082e-05
-1.14398e-05
2.36076e-05
-9.12333e-06
2.69774e-05
-6.78761e-06
2.9385e-05
-4.82407e-06
3.10529e-05
-3.30394e-06
3.21572e-05
-2.1417e-06
3.28069e-05
-1.1892e-06
3.31083e-05
-3.0721e-07
3.31757e-05
7.12196e-07
3.30502e-05
2.07245e-06
3.25405e-05
4.20514e-06
3.09178e-05
7.79612e-06
2.64275e-05
1.33868e-05
1.69055e-05
1.92279e-05
2.91935e-06
2.24352e-05
-8.6436e-06
2.06054e-05
-8.95978e-06
4.92972e-07
-2.53261e-05
-3.36771e-06
1.0718e-05
-2.69655e-06
-1.36172e-06
1.50012e-06
-1.24013e-05
7.51549e-06
-1.81062e-05
1.3765e-05
-1.9105e-05
1.92416e-05
-1.69163e-05
2.35659e-05
-1.34477e-05
2.67859e-05
-1.00076e-05
2.91194e-05
-7.15747e-06
3.07888e-05
-4.97341e-06
3.19564e-05
-3.30926e-06
3.27116e-05
-1.94438e-06
3.30608e-05
-6.56454e-07
3.29958e-05
7.77176e-07
3.25022e-05
2.56604e-06
3.17141e-05
4.99332e-06
3.09757e-05
8.53447e-06
3.01675e-05
1.4195e-05
2.70656e-05
2.23298e-05
1.90591e-05
3.04417e-05
8.84974e-06
3.08148e-05
2.36581e-06
6.9769e-06
-2.29603e-05
-2.87039e-06
1.35884e-05
-1.93541e-06
-2.2967e-06
2.27975e-06
-1.66165e-05
8.17053e-06
-2.3997e-05
1.41938e-05
-2.51283e-05
1.9388e-05
-2.21105e-05
2.34444e-05
-1.7504e-05
2.64775e-05
-1.30408e-05
2.87355e-05
-9.4154e-06
3.04338e-05
-6.67173e-06
3.17075e-05
-4.58293e-06
3.26141e-05
-2.85107e-06
3.31493e-05
-1.19161e-06
3.32727e-05
6.53736e-07
3.29288e-05
2.91e-06
3.21127e-05
5.80937e-06
3.1031e-05
9.61616e-06
3.04423e-05
1.47838e-05
3.05504e-05
2.22216e-05
2.91856e-05
3.18066e-05
2.39088e-05
3.60917e-05
1.28186e-05
1.8067e-05
-1.01417e-05
-2.22521e-06
1.58136e-05
-9.24721e-07
-3.59718e-06
3.18492e-06
-2.07261e-05
8.84996e-06
-2.96621e-05
1.46026e-05
-3.0881e-05
1.94842e-05
-2.69921e-05
2.32459e-05
-2.12657e-05
2.60828e-05
-1.58777e-05
2.82789e-05
-1.16115e-05
3.00367e-05
-8.42951e-06
3.14548e-05
-6.00108e-06
3.2553e-05
-3.9493e-06
3.33007e-05
-1.93924e-06
3.36501e-05
3.04293e-07
3.35579e-05
3.00217e-06
3.30213e-05
6.34601e-06
3.20903e-05
1.05471e-05
3.11448e-05
1.57293e-05
3.12682e-05
2.20982e-05
3.24558e-05
3.0619e-05
3.06746e-05
3.78728e-05
1.93887e-05
2.93529e-05
9.24703e-06
-1.39082e-06
1.72045e-05
2.92302e-07
-5.2803e-06
4.1711e-06
-2.46049e-05
9.49167e-06
-3.49826e-05
1.49264e-05
-3.63157e-05
1.94895e-05
-3.15552e-05
2.29705e-05
-2.47467e-05
2.56442e-05
-1.85514e-05
2.78243e-05
-1.37915e-05
2.96894e-05
-1.02947e-05
3.12936e-05
-7.60526e-06
3.26137e-05
-5.26943e-06
3.359e-05
-2.9155e-06
3.41601e-05
-2.65852e-07
3.42881e-05
2.87418e-06
3.40013e-05
6.63285e-06
3.33657e-05
1.11827e-05
3.24898e-05
1.66052e-05
3.19069e-05
2.26811e-05
3.26628e-05
2.98631e-05
3.2196e-05
3.83397e-05
2.24612e-05
3.90877e-05
3.17082e-05
-3.91001e-07
1.75955e-05
1.72018e-06
-7.39148e-06
5.46899e-06
-2.83537e-05
1.03412e-05
-3.98548e-05
1.53075e-05
-4.12821e-05
1.9459e-05
-3.57067e-05
2.26406e-05
-2.79282e-05
2.51818e-05
-2.10927e-05
2.73978e-05
-1.60075e-05
2.94229e-05
-1.23198e-05
3.12573e-05
-9.4397e-06
3.28333e-05
-6.8454e-06
3.40623e-05
-4.14456e-06
3.4867e-05
-1.07046e-06
3.51939e-05
2.54722e-06
3.50939e-05
6.73289e-06
3.46441e-05
1.16325e-05
3.39757e-05
1.72736e-05
3.31408e-05
2.35159e-05
3.28311e-05
3.01728e-05
3.21556e-05
3.90152e-05
2.46774e-05
4.65659e-05
5.63857e-05
1.01931e-06
1.65762e-05
3.84969e-06
-1.02219e-05
7.75223e-06
-3.22563e-05
1.20709e-05
-4.41735e-05
1.62106e-05
-4.54217e-05
1.96882e-05
-3.91843e-05
2.24751e-05
-3.07151e-05
2.4873e-05
-2.34907e-05
2.71289e-05
-1.82633e-05
2.93066e-05
-1.44975e-05
3.13514e-05
-1.14845e-05
3.31602e-05
-8.65412e-06
3.46254e-05
-5.60977e-06
3.56692e-05
-2.11426e-06
3.62251e-05
1.99132e-06
3.63443e-05
6.61369e-06
3.60454e-05
1.19313e-05
3.55055e-05
1.78135e-05
3.47672e-05
2.42542e-05
3.39209e-05
3.10191e-05
3.2575e-05
4.03611e-05
2.63647e-05
5.27761e-05
8.27504e-05
3.76987e-06
-3.76987e-06
4.56291e-06
-7.93019e-07
2.7579e-06
1.8049e-06
-6.00953e-07
3.35884e-06
-4.60447e-06
4.00368e-06
-8.44192e-06
3.83758e-06
-1.1718e-05
3.27606e-06
-1.44348e-05
2.71664e-06
-1.67938e-05
2.35862e-06
-1.90284e-05
2.2346e-06
-2.12769e-05
2.24874e-06
-2.34924e-05
2.21549e-06
-2.54182e-05
1.92523e-06
-2.65487e-05
1.13053e-06
-2.60746e-05
-4.74659e-07
-2.2993e-05
-3.08125e-06
-1.65416e-05
-6.45169e-06
-7.48909e-06
-9.05253e-06
-7.48915e-06
-1.33865e-06
-2.43148e-06
-3.30596e-06
1.17438e-06
-5.90971e-06
4.40884e-06
-8.84106e-06
6.29025e-06
-1.15371e-05
6.69984e-06
-1.36431e-05
5.94371e-06
-1.50926e-05
4.72512e-06
-1.61747e-05
3.79848e-06
-1.73187e-05
3.50248e-06
-1.88193e-05
3.73528e-06
-2.0677e-05
4.1063e-06
-2.27373e-05
4.2756e-06
-2.47061e-05
3.89318e-06
-2.60757e-05
2.5003e-06
-2.59727e-05
-5.78498e-07
-2.32079e-05
-5.84552e-06
-1.68319e-05
-1.28276e-05
-7.64658e-06
-1.82393e-05
-1.51354e-05
-1.69563e-06
-7.35963e-07
-3.73749e-06
3.21634e-06
-6.05306e-06
6.72463e-06
-8.52305e-06
8.7604e-06
-1.09313e-05
9.10823e-06
-1.29935e-05
8.006e-06
-1.45832e-05
6.31429e-06
-1.59236e-05
5.13867e-06
-1.73145e-05
4.89346e-06
-1.89857e-05
5.40654e-06
-2.10064e-05
6.12674e-06
-2.32717e-05
6.54094e-06
-2.5542e-05
6.16286e-06
-2.72843e-05
4.24324e-06
-2.75781e-05
-2.85306e-07
-2.50219e-05
-8.40168e-06
-1.8414e-05
-1.94358e-05
-8.48195e-06
-2.81722e-05
-2.3617e-05
-3.21607e-07
-4.14324e-07
-1.53796e-06
4.43283e-06
-3.92195e-06
9.10884e-06
-7.0308e-06
1.18694e-05
-1.02798e-05
1.23573e-05
-1.29431e-05
1.06694e-05
-1.4723e-05
8.09393e-06
-1.60135e-05
6.42907e-06
-1.72878e-05
6.16789e-06
-1.8945e-05
7.06392e-06
-2.10812e-05
8.26299e-06
-2.35972e-05
9.05747e-06
-2.62922e-05
8.85717e-06
-2.86429e-05
6.59417e-06
-2.9655e-05
7.26207e-07
-2.75952e-05
-1.04614e-05
-2.07802e-05
-2.62508e-05
-9.73487e-06
-3.92179e-05
-3.33516e-05
1.13975e-06
-1.55398e-06
3.3143e-07
5.24124e-06
-2.43464e-06
1.18752e-05
-6.47965e-06
1.59145e-05
-1.0616e-05
1.64937e-05
-1.36343e-05
1.36877e-05
-1.52087e-05
9.6684e-06
-1.61677e-05
7.38814e-06
-1.71531e-05
7.15344e-06
-1.87041e-05
8.6152e-06
-2.09425e-05
1.05013e-05
-2.37412e-05
1.18566e-05
-2.69868e-05
1.21023e-05
-3.01956e-05
9.80353e-06
-3.23185e-05
2.84892e-06
-3.11622e-05
-1.16183e-05
-2.42262e-05
-3.31868e-05
-1.15745e-05
-5.187e-05
-4.4926e-05
2.38122e-06
-3.93511e-06
2.07974e-06
5.54264e-06
-1.37042e-06
1.53256e-05
-6.43591e-06
2.09802e-05
-1.15372e-05
2.15951e-05
-1.4808e-05
1.69586e-05
-1.58722e-05
1.07327e-05
-1.63362e-05
7.85206e-06
-1.68968e-05
7.71425e-06
-1.82665e-05
9.98538e-06
-2.06242e-05
1.28589e-05
-2.37487e-05
1.49814e-05
-2.76738e-05
1.6027e-05
-3.20096e-05
1.41394e-05
-3.56959e-05
6.53452e-06
-3.6037e-05
-1.12777e-05
-2.91461e-05
-4.00773e-05
-1.42453e-05
-6.67715e-05
-5.91714e-05
4.36806e-06
-8.3031e-06
4.18797e-06
5.72255e-06
-3.89612e-07
1.99034e-05
-6.60715e-06
2.71981e-05
-1.29427e-05
2.79307e-05
-1.64638e-05
2.04799e-05
-1.65344e-05
1.08033e-05
-1.62793e-05
7.59714e-06
-1.62278e-05
7.66286e-06
-1.73359e-05
1.10936e-05
-1.98499e-05
1.53727e-05
-2.3341e-05
1.84732e-05
-2.80853e-05
2.07713e-05
-3.38067e-05
1.98605e-05
-3.9711e-05
1.24383e-05
-4.24355e-05
-8.55342e-06
-3.60738e-05
-4.6439e-05
-1.81353e-05
-8.47106e-05
-7.73069e-05
7.68407e-06
-1.59871e-05
7.4211e-06
5.98561e-06
1.55154e-06
2.5773e-05
-5.90874e-06
3.46587e-05
-1.44139e-05
3.64362e-05
-1.86506e-05
2.47165e-05
-1.69943e-05
9.1469e-06
-1.59626e-05
6.56539e-06
-1.53351e-05
7.03555e-06
-1.58641e-05
1.1623e-05
-1.84985e-05
1.80071e-05
-2.22772e-05
2.2252e-05
-2.79103e-05
2.64038e-05
-3.53161e-05
2.72659e-05
-4.41246e-05
2.12468e-05
-5.09611e-05
-1.71727e-06
-4.62522e-05
-5.11479e-05
-2.36422e-05
-0.000107321
-0.000100949
8.55747e-06
8.0187e-06
1.97334e-05
-2.13978e-05
2.98154e-05
-4.23382e-05
3.60537e-05
-5.04118e-05
4.02414e-05
-4.96094e-05
4.43093e-05
-4.32522e-05
4.88055e-05
-3.52112e-05
5.37057e-05
-2.83908e-05
5.88527e-05
-2.34103e-05
6.39849e-05
-1.96297e-05
6.87868e-05
-1.62865e-05
7.29693e-05
-1.28366e-05
7.63381e-05
-8.97861e-06
7.88428e-05
-4.61894e-06
8.02907e-05
5.43403e-07
8.10959e-05
5.80849e-06
8.10402e-05
1.19871e-05
8.0425e-05
1.84287e-05
7.97251e-05
2.49541e-05
7.89997e-05
3.17445e-05
7.93118e-05
4.00491e-05
8.41713e-05
4.79165e-05
6.81608e-05
9.87609e-05
1.86222e-05
-1.06035e-05
4.20936e-05
-4.48692e-05
5.38418e-05
-5.40865e-05
5.25316e-05
-4.91015e-05
4.82313e-05
-4.53091e-05
4.73166e-05
-4.23375e-05
5.04365e-05
-3.83311e-05
5.59336e-05
-3.38879e-05
6.23351e-05
-2.98118e-05
6.87292e-05
-2.60238e-05
7.44642e-05
-2.20216e-05
7.91232e-05
-1.74956e-05
8.24872e-05
-1.23425e-05
8.46735e-05
-6.80523e-06
8.64181e-05
-1.20128e-06
8.69182e-05
5.30843e-06
8.68583e-05
1.2047e-05
8.64448e-05
1.88422e-05
8.68142e-05
2.45847e-05
8.82307e-05
3.0328e-05
9.16429e-05
3.66368e-05
9.91266e-05
4.04329e-05
5.26653e-05
0.000114622
2.92361e-05
-3.98396e-05
6.16268e-05
-7.72599e-05
6.67429e-05
-5.92026e-05
5.22225e-05
-3.45811e-05
4.02414e-05
-3.3328e-05
3.65521e-05
-3.86482e-05
3.86063e-05
-4.03853e-05
4.428e-05
-3.95617e-05
5.18023e-05
-3.73341e-05
6.01584e-05
-3.43798e-05
6.89717e-05
-3.08349e-05
7.79686e-05
-2.64924e-05
8.58127e-05
-2.01867e-05
9.15436e-05
-1.25361e-05
9.43252e-05
-3.98288e-06
9.41175e-05
5.51608e-06
9.11482e-05
1.50163e-05
8.85687e-05
2.14217e-05
8.9406e-05
2.37475e-05
9.16653e-05
2.80687e-05
9.48469e-05
3.34552e-05
9.84994e-05
3.67803e-05
4.23318e-05
0.000108833
3.3544e-05
-7.33836e-05
5.22279e-05
-9.59438e-05
2.43076e-05
-3.12823e-05
3.40153e-06
-1.36749e-05
-5.45867e-06
-2.44677e-05
-1.08729e-05
-3.32339e-05
-1.77959e-05
-3.34622e-05
-2.14553e-05
-3.59022e-05
-2.24707e-05
-3.63187e-05
-1.89219e-05
-3.79285e-05
-7.79683e-06
-4.196e-05
1.61243e-05
-5.04135e-05
4.19568e-05
-4.60191e-05
6.43766e-05
-3.49559e-05
8.36478e-05
-2.3254e-05
9.47638e-05
-5.59998e-06
9.86128e-05
1.11673e-05
0.000100366
1.96688e-05
0.000102183
2.19306e-05
0.000101057
2.91947e-05
0.00010024
3.42714e-05
0.000100154
3.68671e-05
3.94691e-05
0.000103016
-2.80685e-06
-7.05767e-05
-1.73769e-05
-8.13735e-05
-2.44598e-05
-2.41991e-05
-1.25034e-05
-2.56311e-05
-6.92603e-06
-3.00449e-05
-7.84244e-06
-3.23174e-05
-8.97705e-06
-3.23275e-05
-1.07599e-05
-3.41192e-05
-1.07676e-05
-3.63108e-05
-7.99515e-06
-4.07008e-05
-4.86596e-06
-4.50891e-05
-1.03661e-05
-4.49134e-05
-2.03272e-05
-3.6058e-05
-2.57178e-05
-2.95654e-05
-2.37866e-05
-2.51852e-05
-1.36343e-05
-1.57522e-05
6.69865e-06
-9.16565e-06
6.4239e-05
-3.78716e-05
9.00056e-05
-3.83596e-06
9.80027e-05
2.11976e-05
0.00010346
2.88136e-05
0.000105908
3.44198e-05
3.94725e-05
0.000105904
-2.23894e-05
-4.81871e-05
-3.97569e-05
-6.40058e-05
-2.26076e-05
-4.13483e-05
-1.33761e-05
-3.48625e-05
-1.02862e-05
-3.31348e-05
-9.81089e-06
-3.27926e-05
-9.9676e-06
-3.21706e-05
-1.09379e-05
-3.31488e-05
-1.07594e-05
-3.64893e-05
-9.39686e-06
-4.20634e-05
-8.75119e-06
-4.57349e-05
-1.30182e-05
-4.06464e-05
-2.09697e-05
-2.81065e-05
-2.33911e-05
-2.7144e-05
-3.36246e-06
-4.52137e-05
3.24219e-05
-5.15365e-05
7.19243e-05
-4.86681e-05
8.45902e-05
-5.05375e-05
9.33494e-05
-1.25952e-05
7.49342e-05
3.96127e-05
8.00611e-05
2.36867e-05
9.34817e-05
2.09993e-05
2.95192e-05
0.000103435
-1.50095e-05
-3.31774e-05
-1.84891e-05
-6.05261e-05
-1.42068e-05
-4.56305e-05
-1.14941e-05
-3.75751e-05
-1.01629e-05
-3.44659e-05
-9.6898e-06
-3.32656e-05
-9.76954e-06
-3.20908e-05
-1.03418e-05
-3.25765e-05
-1.08292e-05
-3.60019e-05
-1.14096e-05
-4.14832e-05
-1.23729e-05
-4.47718e-05
-1.39716e-05
-3.90478e-05
-1.44918e-05
-2.75864e-05
-8.17595e-06
-3.34598e-05
6.53318e-06
-5.99228e-05
2.85498e-05
-7.35532e-05
5.80929e-05
-7.82113e-05
8.1049e-05
-7.34937e-05
0.000108863
-4.04097e-05
0.000133567
1.49091e-05
0.000117179
4.00748e-05
8.69716e-05
5.12064e-05
5.3946e-05
6.25449e-05
-6.04613e-06
-2.71312e-05
-1.00676e-05
-5.65048e-05
-1.08425e-05
-4.48556e-05
-9.87679e-06
-3.85408e-05
-8.72787e-06
-3.56147e-05
-8.1028e-06
-3.38906e-05
-8.02205e-06
-3.21715e-05
-8.71181e-06
-3.18868e-05
-1.01746e-05
-3.45394e-05
-1.22585e-05
-3.93995e-05
-1.38479e-05
-4.31826e-05
-1.20456e-05
-4.08502e-05
-4.63556e-06
-3.49965e-05
5.66602e-06
-4.37613e-05
9.54712e-06
-6.38038e-05
1.58433e-05
-7.98493e-05
2.95464e-05
-9.19143e-05
5.07546e-05
-9.47019e-05
8.33957e-05
-7.3051e-05
0.000125522
-2.72169e-05
0.000145408
2.01884e-05
0.000136149
6.04659e-05
7.86745e-05
0.00011142
-3.76462e-06
-2.33667e-05
-7.0795e-06
-5.31901e-05
-7.82339e-06
-4.41118e-05
-7.69181e-06
-3.86724e-05
-7.00383e-06
-3.63025e-05
-6.35599e-06
-3.45383e-05
-5.87032e-06
-3.26571e-05
-5.98431e-06
-3.1773e-05
-7.1041e-06
-3.34198e-05
-9.0666e-06
-3.74372e-05
-1.03432e-05
-4.19062e-05
-7.38129e-06
-4.38122e-05
1.57013e-06
-4.39478e-05
9.11318e-06
-5.13042e-05
9.33354e-06
-6.4024e-05
9.00143e-06
-7.95172e-05
1.12749e-05
-9.41878e-05
1.99531e-05
-0.00010338
4.29422e-05
-9.60401e-05
7.77804e-05
-6.20552e-05
0.000110355
-1.23862e-05
0.000124179
4.66422e-05
8.598e-05
0.000116873
-1.77842e-06
-2.15884e-05
-4.38247e-06
-5.05862e-05
-5.46234e-06
-4.3032e-05
-5.59647e-06
-3.85381e-05
-5.18917e-06
-3.67097e-05
-4.47176e-06
-3.52556e-05
-3.4924e-06
-3.36365e-05
-2.66741e-06
-3.25981e-05
-2.60445e-06
-3.3483e-05
-3.40956e-06
-3.66323e-05
-4.1787e-06
-4.11371e-05
-2.57371e-06
-4.54171e-05
2.33217e-06
-4.88535e-05
6.23958e-06
-5.52115e-05
7.13843e-06
-6.49228e-05
4.73534e-06
-7.71141e-05
2.35106e-08
-8.94761e-05
-4.4789e-06
-9.88781e-05
-1.30615e-06
-9.92131e-05
1.65061e-05
-7.98676e-05
4.00013e-05
-3.58815e-05
6.35246e-05
2.31189e-05
6.98595e-05
7.96449e-05
-5.80165e-07
-2.10084e-05
-2.6518e-06
-4.85147e-05
-3.75147e-06
-4.19323e-05
-4.00464e-06
-3.82848e-05
-3.74008e-06
-3.69741e-05
-3.03589e-06
-3.59598e-05
-1.81421e-06
-3.48582e-05
-3.17197e-07
-3.40952e-05
8.47973e-07
-3.46482e-05
1.30099e-06
-3.70853e-05
1.20689e-06
-4.10429e-05
1.45892e-06
-4.5669e-05
2.79733e-06
-5.01918e-05
3.68963e-06
-5.61036e-05
1.81127e-06
-6.30444e-05
-3.73995e-06
-7.15629e-05
-1.19507e-05
-8.12656e-05
-2.18048e-05
-8.90242e-05
-3.03704e-05
-9.06477e-05
-3.55615e-05
-7.46767e-05
-2.88958e-05
-4.25474e-05
-9.99546e-06
4.21835e-06
4.5537e-05
1.43268e-05
-2.77605e-08
-2.09807e-05
-1.65179e-06
-4.68907e-05
-2.60823e-06
-4.09758e-05
-2.90547e-06
-3.79875e-05
-2.77899e-06
-3.71005e-05
-2.22867e-06
-3.65101e-05
-1.14189e-06
-3.5945e-05
4.01223e-07
-3.56383e-05
1.92045e-06
-3.61674e-05
2.88807e-06
-3.80528e-05
3.07209e-06
-4.12268e-05
2.59944e-06
-4.51963e-05
1.78357e-06
-4.93758e-05
-1.98818e-07
-5.41212e-05
-4.31478e-06
-5.89285e-05
-1.1362e-05
-6.45159e-05
-2.15747e-05
-7.10531e-05
-3.3185e-05
-7.7414e-05
-4.45536e-05
-7.92792e-05
-5.19402e-05
-6.72902e-05
-5.20728e-05
-4.24149e-05
-3.91439e-05
-8.71073e-06
2.39425e-05
-1.75495e-05
1.5571e-07
-2.11365e-05
-1.09457e-06
-4.56405e-05
-1.90183e-06
-4.01685e-05
-2.21431e-06
-3.7675e-05
-2.20661e-06
-3.71083e-05
-1.88633e-06
-3.68304e-05
-1.17417e-06
-3.66572e-05
-8.30943e-08
-3.67294e-05
1.08746e-06
-3.73378e-05
1.86032e-06
-3.88256e-05
1.86141e-06
-4.12278e-05
9.31539e-07
-4.42664e-05
-9.46085e-07
-4.74983e-05
-4.08177e-06
-5.09857e-05
-8.56688e-06
-5.44435e-05
-1.54112e-05
-5.76717e-05
-2.58598e-05
-6.06045e-05
-3.96617e-05
-6.36122e-05
-5.46493e-05
-6.42916e-05
-6.37485e-05
-5.8191e-05
-6.26334e-05
-4.353e-05
-5.03566e-05
-2.09876e-05
3.66152e-06
-3.00757e-05
2.0504e-07
-2.13415e-05
-7.9633e-07
-4.46391e-05
-1.48267e-06
-3.94822e-05
-1.81588e-06
-3.73419e-05
-1.91785e-06
-3.70064e-05
-1.82531e-06
-3.69231e-05
-1.52401e-06
-3.69586e-05
-1.01865e-06
-3.72347e-05
-4.66786e-07
-3.78896e-05
-2.14235e-07
-3.90781e-05
-6.10232e-07
-4.08319e-05
-1.85227e-06
-4.30245e-05
-3.93567e-06
-4.54151e-05
-7.02328e-06
-4.78983e-05
-1.11706e-05
-5.02963e-05
-1.64645e-05
-5.2378e-05
-2.32804e-05
-5.37886e-05
-3.27821e-05
-5.41104e-05
-4.48415e-05
-5.22322e-05
-5.61828e-05
-4.68495e-05
-6.27122e-05
-3.70004e-05
-6.10747e-05
-2.26251e-05
-6.37672e-06
-5.10365e-05
1.69602e-07
-2.15112e-05
-6.56021e-07
-4.38136e-05
-1.26243e-06
-3.88759e-05
-1.61927e-06
-3.69852e-05
-1.82068e-06
-3.68052e-05
-1.9099e-06
-3.6834e-05
-1.90937e-06
-3.69591e-05
-1.85858e-06
-3.72855e-05
-1.8545e-06
-3.78937e-05
-2.09867e-06
-3.8834e-05
-2.81807e-06
-4.01126e-05
-4.17651e-06
-4.16663e-05
-6.23394e-06
-4.33579e-05
-9.09499e-06
-4.50374e-05
-1.28517e-05
-4.65397e-05
-1.75712e-05
-4.76586e-05
-2.32522e-05
-4.81075e-05
-2.99942e-05
-4.73682e-05
-3.75978e-05
-4.46285e-05
-4.51151e-05
-3.9332e-05
-5.06513e-05
-3.14642e-05
-5.19511e-05
-2.13251e-05
-1.0366e-05
-4.79618e-05
1.02715e-07
-2.16139e-05
-6.0902e-07
-4.3102e-05
-1.16982e-06
-3.83153e-05
-1.55117e-06
-3.66041e-05
-1.83413e-06
-3.65224e-05
-2.05769e-06
-3.66105e-05
-2.25563e-06
-3.67612e-05
-2.47871e-06
-3.70624e-05
-2.80833e-06
-3.75642e-05
-3.35909e-06
-3.82833e-05
-4.26056e-06
-3.92113e-05
-5.63936e-06
-4.02877e-05
-7.57198e-06
-4.14255e-05
-1.01241e-05
-4.24855e-05
-1.33454e-05
-4.33185e-05
-1.72843e-05
-4.37197e-05
-2.19529e-05
-4.34389e-05
-2.71869e-05
-4.21342e-05
-3.2431e-05
-3.93843e-05
-3.68606e-05
-3.49022e-05
-3.96109e-05
-2.87137e-05
-3.97085e-05
-2.12273e-05
-1.3415e-05
-3.66592e-05
3.2588e-08
-2.16466e-05
-6.12359e-07
-4.24571e-05
-1.15076e-06
-3.7777e-05
-1.55612e-06
-3.61988e-05
-1.90563e-06
-3.6173e-05
-2.23091e-06
-3.62853e-05
-2.56056e-06
-3.64316e-05
-2.94335e-06
-3.66797e-05
-3.44458e-06
-3.7063e-05
-4.14162e-06
-3.75863e-05
-5.12085e-06
-3.82321e-05
-6.46478e-06
-3.89439e-05
-8.23058e-06
-3.96598e-05
-1.04638e-05
-4.02524e-05
-1.31777e-05
-4.06048e-05
-1.63551e-05
-4.05425e-05
-1.99212e-05
-3.98729e-05
-2.37019e-05
-3.83534e-05
-2.73272e-05
-3.57589e-05
-3.02602e-05
-3.1969e-05
-3.18588e-05
-2.7115e-05
-3.15061e-05
-2.158e-05
-1.59535e-05
-2.89676e-05
-2.967e-08
-2.16169e-05
-6.40417e-07
-4.18464e-05
-1.17216e-06
-3.72453e-05
-1.59824e-06
-3.57728e-05
-1.99882e-06
-3.57724e-05
-2.40087e-06
-3.58832e-05
-2.82521e-06
-3.60072e-05
-3.30869e-06
-3.61961e-05
-3.8992e-06
-3.64724e-05
-4.65973e-06
-3.68257e-05
-5.64802e-06
-3.72437e-05
-6.91847e-06
-3.76734e-05
-8.51534e-06
-3.8063e-05
-1.04527e-05
-3.83152e-05
-1.27312e-05
-3.83264e-05
-1.53022e-05
-3.79716e-05
-1.80708e-05
-3.71045e-05
-2.08487e-05
-3.55756e-05
-2.33448e-05
-3.32627e-05
-2.51851e-05
-3.01286e-05
-2.59891e-05
-2.63109e-05
-2.54283e-05
-2.21407e-05
-1.80177e-05
-2.33641e-05
-6.98894e-08
-2.1547e-05
-6.72532e-07
-4.12437e-05
-1.20541e-06
-3.67125e-05
-1.6513e-06
-3.53269e-05
-2.08915e-06
-3.53345e-05
-2.54412e-06
-3.54282e-05
-3.03208e-06
-3.55192e-05
-3.57922e-06
-3.56489e-05
-4.22551e-06
-3.5826e-05
-5.00372e-06
-3.60473e-05
-5.96901e-06
-3.62783e-05
-7.14088e-06
-3.65016e-05
-8.55589e-06
-3.66481e-05
-1.02163e-05
-3.6655e-05
-1.20936e-05
-3.64493e-05
-1.41377e-05
-3.59277e-05
-1.62468e-05
-3.49955e-05
-1.82638e-05
-3.35587e-05
-1.99731e-05
-3.15533e-05
-2.11184e-05
-2.89831e-05
-2.14512e-05
-2.59779e-05
-2.07847e-05
-2.28069e-05
-1.97639e-05
-1.90384e-05
-9.7687e-08
-2.14493e-05
-7.04335e-07
-4.06372e-05
-1.2422e-06
-3.61747e-05
-1.70011e-06
-3.4869e-05
-2.16215e-06
-3.48724e-05
-2.64974e-06
-3.49405e-05
-3.17434e-06
-3.49945e-05
-3.75505e-06
-3.50681e-05
-4.41792e-06
-3.51629e-05
-5.19398e-06
-3.52711e-05
-6.10116e-06
-3.53711e-05
-7.17138e-06
-3.54314e-05
-8.4111e-06
-3.54086e-05
-9.80735e-06
-3.52589e-05
-1.13439e-05
-3.49128e-05
-1.29578e-05
-3.43138e-05
-1.4561e-05
-3.33924e-05
-1.6027e-05
-3.20926e-05
-1.71958e-05
-3.03844e-05
-1.7889e-05
-2.82898e-05
-1.79417e-05
-2.59249e-05
-1.72301e-05
-2.35183e-05
-2.12798e-05
-1.57141e-05
-1.11566e-07
-2.13378e-05
-7.28106e-07
-4.00208e-05
-1.26765e-06
-3.56352e-05
-1.734e-06
-3.44027e-05
-2.20957e-06
-3.43968e-05
-2.71371e-06
-3.44363e-05
-3.25525e-06
-3.44529e-05
-3.8482e-06
-3.44751e-05
-4.50525e-06
-3.45057e-05
-5.24866e-06
-3.45275e-05
-6.0948e-06
-3.45249e-05
-7.05606e-06
-3.44702e-05
-8.13292e-06
-3.43318e-05
-9.31524e-06
-3.40766e-05
-1.05646e-05
-3.36634e-05
-1.18373e-05
-3.3041e-05
-1.30557e-05
-3.2174e-05
-1.41237e-05
-3.10246e-05
-1.492e-05
-2.9588e-05
-1.53196e-05
-2.78902e-05
-1.52089e-05
-2.60355e-05
-1.45051e-05
-2.42221e-05
-2.26156e-05
-1.31691e-05
-1.13561e-07
-2.12243e-05
-7.42003e-07
-3.93927e-05
-1.28297e-06
-3.50944e-05
-1.74942e-06
-3.39363e-05
-2.22818e-06
-3.3918e-05
-2.73552e-06
-3.39289e-05
-3.27641e-06
-3.39121e-05
-3.8596e-06
-3.38919e-05
-4.49847e-06
-3.38668e-05
-5.20234e-06
-3.38236e-05
-5.9808e-06
-3.37464e-05
-6.83758e-06
-3.36134e-05
-7.76821e-06
-3.34011e-05
-8.75894e-06
-3.30858e-05
-9.78314e-06
-3.26391e-05
-1.07947e-05
-3.20295e-05
-1.17322e-05
-3.12364e-05
-1.25172e-05
-3.02394e-05
-1.30629e-05
-2.90422e-05
-1.32796e-05
-2.76733e-05
-1.30872e-05
-2.62277e-05
-1.2426e-05
-2.4883e-05
-2.37781e-05
-1.12633e-05
-1.07169e-07
-2.11173e-05
-7.47701e-07
-3.87524e-05
-1.28181e-06
-3.45605e-05
-1.74346e-06
-3.34747e-05
-2.2178e-06
-3.34437e-05
-2.71897e-06
-3.34278e-05
-3.24932e-06
-3.33817e-05
-3.81503e-06
-3.33262e-05
-4.42354e-06
-3.32583e-05
-5.08015e-06
-3.3167e-05
-5.78869e-06
-3.30379e-05
-6.5505e-06
-3.28515e-05
-7.35753e-06
-3.25939e-05
-8.19548e-06
-3.22476e-05
-9.03969e-06
-3.17948e-05
-9.85274e-06
-3.12164e-05
-1.05818e-05
-3.05073e-05
-1.11719e-05
-2.9649e-05
-1.15554e-05
-2.86583e-05
-1.16678e-05
-2.75606e-05
-1.14518e-05
-2.64433e-05
-1.08634e-05
-2.54712e-05
-2.47661e-05
-9.87507e-06
-9.56751e-08
-2.10219e-05
-7.39219e-07
-3.81091e-05
-1.26354e-06
-3.40362e-05
-1.71415e-06
-3.30241e-05
-2.17726e-06
-3.29806e-05
-2.66443e-06
-3.29406e-05
-3.17602e-06
-3.28702e-05
-3.71606e-06
-3.27861e-05
-4.28879e-06
-3.26855e-05
-4.8976e-06
-3.2558e-05
-5.54354e-06
-3.23917e-05
-6.21682e-06
-3.21779e-05
-6.91911e-06
-3.18913e-05
-7.63406e-06
-3.15325e-05
-8.33964e-06
-3.10893e-05
-9.00477e-06
-3.05513e-05
-9.59317e-06
-2.99188e-05
-1.00482e-05
-2.91936e-05
-1.03326e-05
-2.83735e-05
-1.04002e-05
-2.74927e-05
-1.02071e-05
-2.66363e-05
-9.72264e-06
-2.59554e-05
-2.55799e-05
-8.90867e-06
-8.16315e-08
-2.09404e-05
-7.17369e-07
-3.74736e-05
-1.22157e-06
-3.35321e-05
-1.65777e-06
-3.2588e-05
-2.10512e-06
-3.25333e-05
-2.57292e-06
-3.24729e-05
-3.06026e-06
-3.23828e-05
-3.57025e-06
-3.22761e-05
-4.1045e-06
-3.21511e-05
-4.6637e-06
-3.19987e-05
-5.24693e-06
-3.18083e-05
-5.85409e-06
-3.15706e-05
-6.4669e-06
-3.12784e-05
-7.08326e-06
-3.09161e-05
-7.68429e-06
-3.04883e-05
-8.23973e-06
-2.99959e-05
-8.72389e-06
-2.94345e-05
-9.10567e-06
-2.88117e-05
-9.34569e-06
-2.81334e-05
-9.40299e-06
-2.74354e-05
-9.25979e-06
-2.67795e-05
-8.89105e-06
-2.63241e-05
-2.61975e-05
-8.27336e-06
-6.4102e-08
-2.08764e-05
-6.73489e-07
-3.68643e-05
-1.15382e-06
-3.30519e-05
-1.57052e-06
-3.21713e-05
-1.99814e-06
-3.21057e-05
-2.44337e-06
-3.20276e-05
-2.90547e-06
-3.19207e-05
-3.3827e-06
-3.17988e-05
-3.87761e-06
-3.1656e-05
-4.39107e-06
-3.1485e-05
-4.92051e-06
-3.12786e-05
-5.4609e-06
-3.103e-05
-6.00681e-06
-3.07324e-05
-6.54614e-06
-3.03769e-05
-7.06451e-06
-2.997e-05
-7.54733e-06
-2.9513e-05
-7.96857e-06
-2.90131e-05
-8.30479e-06
-2.84754e-05
-8.52716e-06
-2.79111e-05
-8.61667e-06
-2.7346e-05
-8.55515e-06
-2.68411e-05
-8.33079e-06
-2.65484e-05
-2.66015e-05
-7.92677e-06
-3.85524e-08
-2.0838e-05
-6.05234e-07
-3.62978e-05
-1.05351e-06
-3.26038e-05
-1.44899e-06
-3.17759e-05
-1.8527e-06
-3.17019e-05
-2.27109e-06
-3.16091e-05
-2.70261e-06
-3.1489e-05
-3.14879e-06
-3.13524e-05
-3.60923e-06
-3.11954e-05
-4.08062e-06
-3.10134e-05
-4.56371e-06
-3.07953e-05
-5.05277e-06
-3.05409e-05
-5.54319e-06
-3.02421e-05
-6.02342e-06
-2.98968e-05
-6.48732e-06
-2.95061e-05
-6.91543e-06
-2.90848e-05
-7.29922e-06
-2.86294e-05
-7.61939e-06
-2.81556e-05
-7.85787e-06
-2.76729e-05
-8.0028e-06
-2.72012e-05
-8.03689e-06
-2.6807e-05
-7.96492e-06
-2.66204e-05
-2.68032e-05
-7.76322e-06
4.57808e-09
-2.08427e-05
-5.09802e-07
-3.57837e-05
-9.25263e-07
-3.21885e-05
-1.29585e-06
-3.14054e-05
-1.67207e-06
-3.13257e-05
-2.06037e-06
-3.12207e-05
-2.46029e-06
-3.10891e-05
-2.87221e-06
-3.09404e-05
-3.29585e-06
-3.07718e-05
-3.73134e-06
-3.05779e-05
-4.17207e-06
-3.03545e-05
-4.61765e-06
-3.00953e-05
-5.06257e-06
-2.97973e-05
-5.49822e-06
-2.94613e-05
-5.91796e-06
-2.90865e-05
-6.31699e-06
-2.86859e-05
-6.68463e-06
-2.8262e-05
-7.00985e-06
-2.78308e-05
-7.28409e-06
-2.73991e-05
-7.49919e-06
-2.69862e-05
-7.6607e-06
-2.66455e-05
-7.75517e-06
-2.6526e-05
-2.67762e-05
-7.78243e-06
6.59103e-08
-2.09087e-05
-3.95864e-07
-3.53221e-05
-7.75824e-07
-3.18085e-05
-1.11812e-06
-3.1063e-05
-1.4634e-06
-3.09803e-05
-1.81727e-06
-3.08667e-05
-2.18122e-06
-3.07251e-05
-2.55529e-06
-3.05663e-05
-2.93989e-06
-3.03872e-05
-3.33511e-06
-3.01826e-05
-3.73572e-06
-2.99538e-05
-4.14071e-06
-2.96903e-05
-4.54543e-06
-2.93928e-05
-4.94579e-06
-2.90612e-05
-5.3363e-06
-2.86963e-05
-5.7157e-06
-2.83068e-05
-6.07477e-06
-2.79034e-05
-6.41584e-06
-2.74903e-05
-6.73487e-06
-2.70804e-05
-7.03307e-06
-2.6688e-05
-7.3183e-06
-2.63603e-05
-7.60652e-06
-2.62379e-05
-2.64776e-05
-7.90527e-06
1.45578e-07
-2.10543e-05
-2.70296e-07
-3.49061e-05
-6.18514e-07
-3.14602e-05
-9.29938e-07
-3.07514e-05
-1.23918e-06
-3.06709e-05
-1.55505e-06
-3.05508e-05
-1.87648e-06
-3.04036e-05
-2.20656e-06
-3.02363e-05
-2.5462e-06
-3.00476e-05
-2.89241e-06
-2.98363e-05
-3.24802e-06
-2.95982e-05
-3.60845e-06
-2.933e-05
-3.97126e-06
-2.90302e-05
-4.33434e-06
-2.86984e-05
-4.69188e-06
-2.8339e-05
-5.04608e-06
-2.79529e-05
-5.39873e-06
-2.75511e-05
-5.75054e-06
-2.71388e-05
-6.10812e-06
-2.67229e-05
-6.48126e-06
-2.63148e-05
-6.88303e-06
-2.59586e-05
-7.34181e-06
-2.57794e-05
-2.59408e-05
-7.87877e-06
2.41544e-07
-2.12959e-05
-1.46154e-07
-3.45183e-05
-4.66856e-07
-3.11394e-05
-7.43089e-07
-3.04751e-05
-1.01288e-06
-3.0401e-05
-1.28518e-06
-3.02786e-05
-1.56097e-06
-3.01278e-05
-1.84128e-06
-2.9956e-05
-2.12712e-06
-2.97617e-05
-2.4199e-06
-2.95435e-05
-2.71924e-06
-2.9299e-05
-3.02363e-06
-2.90258e-05
-3.33173e-06
-2.87221e-05
-3.642e-06
-2.83882e-05
-3.95512e-06
-2.80259e-05
-4.26945e-06
-2.76388e-05
-4.59163e-06
-2.72292e-05
-4.92901e-06
-2.68016e-05
-5.29294e-06
-2.63589e-05
-5.69697e-06
-2.59108e-05
-6.16886e-06
-2.54869e-05
-6.74818e-06
-2.52003e-05
-2.51966e-05
-7.49245e-06
3.49452e-07
-2.16453e-05
-3.14143e-08
-3.41375e-05
-3.28737e-07
-3.0842e-05
-5.72973e-07
-3.02309e-05
-8.0384e-07
-3.01701e-05
-1.03368e-06
-3.00488e-05
-1.26209e-06
-2.98993e-05
-1.49072e-06
-2.97274e-05
-1.72061e-06
-2.95317e-05
-1.95272e-06
-2.93114e-05
-2.18722e-06
-2.90645e-05
-2.42391e-06
-2.87891e-05
-2.6625e-06
-2.84835e-05
-2.90274e-06
-2.81479e-05
-3.14558e-06
-2.77832e-05
-3.39287e-06
-2.73917e-05
-3.65015e-06
-2.69721e-05
-3.92715e-06
-2.65247e-05
-4.23819e-06
-2.60479e-05
-4.6026e-06
-2.55464e-05
-5.0496e-06
-2.504e-05
-5.64115e-06
-2.46088e-05
-2.43606e-05
-6.477e-06
4.61442e-07
-2.21066e-05
4.6205e-08
-3.37224e-05
-2.27228e-07
-3.05687e-05
-4.3789e-07
-3.00202e-05
-6.33374e-07
-2.99747e-05
-8.26371e-07
-2.98556e-05
-1.01385e-06
-2.97119e-05
-1.19645e-06
-2.95448e-05
-1.37456e-06
-2.93536e-05
-1.54855e-06
-2.91374e-05
-1.71861e-06
-2.88945e-05
-1.88485e-06
-2.86229e-05
-2.04732e-06
-2.83211e-05
-2.20616e-06
-2.79891e-05
-2.36119e-06
-2.76282e-05
-2.51546e-06
-2.72375e-05
-2.67268e-06
-2.6815e-05
-2.84093e-06
-2.63565e-05
-3.03261e-06
-2.58562e-05
-3.26509e-06
-2.53139e-05
-3.57028e-06
-2.47348e-05
-4.01496e-06
-2.41641e-05
-2.36621e-05
-4.71358e-06
5.76463e-07
-2.26832e-05
1.03765e-07
-3.325e-05
-1.63106e-07
-3.03021e-05
-3.45801e-07
-2.98374e-05
-5.19523e-07
-2.9801e-05
-6.88312e-07
-2.96868e-05
-8.47469e-07
-2.95529e-05
-9.97223e-07
-2.93951e-05
-1.13717e-06
-2.92136e-05
-1.26658e-06
-2.90079e-05
-1.38518e-06
-2.87758e-05
-1.49264e-06
-2.85154e-05
-1.58836e-06
-2.82255e-05
-1.67128e-06
-2.79062e-05
-1.74082e-06
-2.75586e-05
-1.79641e-06
-2.71818e-05
-1.83914e-06
-2.67721e-05
-1.87204e-06
-2.63234e-05
-1.90051e-06
-2.58275e-05
-1.93453e-06
-2.52797e-05
-1.99602e-06
-2.46733e-05
-2.14394e-06
-2.40161e-05
-2.33205e-05
-2.48553e-06
6.83924e-07
-2.33675e-05
1.31562e-07
-3.2698e-05
-1.36372e-07
-3.00343e-05
-3.05404e-07
-2.96685e-05
-4.69605e-07
-2.96367e-05
-6.27776e-07
-2.95286e-05
-7.7422e-07
-2.94065e-05
-9.07691e-07
-2.92615e-05
-1.02727e-06
-2.90939e-05
-1.13241e-06
-2.89027e-05
-1.22168e-06
-2.86865e-05
-1.29388e-06
-2.84432e-05
-1.34742e-06
-2.81719e-05
-1.37948e-06
-2.7874e-05
-1.38677e-06
-2.75511e-05
-1.36548e-06
-2.72029e-05
-1.31197e-06
-2.68255e-05
-1.22198e-06
-2.64133e-05
-1.09002e-06
-2.59592e-05
-9.14096e-07
-2.54554e-05
-6.96208e-07
-2.4891e-05
-4.70514e-07
-2.42419e-05
-2.35014e-05
-2.89763e-07
7.75563e-07
-2.41432e-05
1.35851e-07
-3.20585e-05
-1.40149e-07
-2.97581e-05
-3.01794e-07
-2.95068e-05
-4.70492e-07
-2.94678e-05
-6.25815e-07
-2.93733e-05
-7.69589e-07
-2.92626e-05
-9.0062e-07
-2.91303e-05
-1.01703e-06
-2.89774e-05
-1.11703e-06
-2.88026e-05
-1.19919e-06
-2.86042e-05
-1.262e-06
-2.83803e-05
-1.3029e-06
-2.81308e-05
-1.31636e-06
-2.78604e-05
-1.29702e-06
-2.75703e-05
-1.23772e-06
-2.72622e-05
-1.13053e-06
-2.69328e-05