/*--------------------------------*- C++ -*----------------------------------*\
| =========                 |                                                 |
| \\      /  F ield         | OpenFOAM: The Open Source CFD Toolbox           |
|  \\    /   O peration     | Version:  2206                                  |
|   \\  /    A nd           | Website:  www.openfoam.com                      |
|    \\/     M anipulation  |                                                 |
\*---------------------------------------------------------------------------*/
FoamFile
{
    version     2.0;
    format      ascii;
    arch        "LSB;label=32;scalar=64";
    class       volVectorField;
    location    "0.425";
    object      U;
}
// * * * * * * * * * * * * * * * * * * * * * * * * * * * * * * * * * * * * * //

dimensions      [0 1 -1 0 0 0 0];

internalField   nonuniform List<vector> 
2268
(
(-0.0352367 0.00985841 0)
(-0.0525429 -2.78274e-05 0)
(-0.0216703 -0.0109055 0)
(0.039465 -0.0162202 0)
(0.111898 -0.017393 0)
(0.182664 -0.015531 0)
(0.243199 -0.0123854 0)
(0.289657 -0.00916805 0)
(0.322792 -0.00642698 0)
(0.3454 -0.00428517 0)
(0.360211 -0.00264483 0)
(0.368939 -0.00130125 0)
(0.372584 0.000295203 0)
(0.369059 0.00273751 0)
(0.354982 0.00681374 0)
(0.325467 0.013155 0)
(0.273099 0.0222208 0)
(0.189629 0.0316656 0)
(0.0687315 0.0306358 0)
(-0.0295475 0.0159943 0)
(-0.16112 0.0261666 0)
(-0.240072 0.00914672 0)
(-0.0800334 -0.0613974 0)
(-0.0411005 0.0294963 0)
(-0.0497815 -0.00220067 0)
(-0.0183684 -0.033234 0)
(0.0437554 -0.0490639 0)
(0.116104 -0.0523596 0)
(0.186143 -0.046727 0)
(0.24562 -0.0373426 0)
(0.291196 -0.0277969 0)
(0.32393 -0.0197067 0)
(0.346675 -0.0134035 0)
(0.362078 -0.00857436 0)
(0.37192 -0.00461751 0)
(0.376831 -0.000577746 0)
(0.378688 0.00437356 0)
(0.378563 0.011602 0)
(0.376296 0.0227585 0)
(0.368273 0.0399199 0)
(0.342874 0.0638639 0)
(0.266528 0.0833658 0)
(0.136549 0.0852364 0)
(-0.0801221 0.0699189 0)
(-0.155533 -0.0148046 0)
(-0.00255544 -0.135542 0)
(-0.0376444 0.0486479 0)
(-0.0450746 -0.00562755 0)
(-0.0119387 -0.0557833 0)
(0.0504456 -0.0817759 0)
(0.121593 -0.0866546 0)
(0.189495 -0.0769859 0)
(0.246396 -0.0613322 0)
(0.289748 -0.0456241 0)
(0.321118 -0.0324796 0)
(0.34346 -0.0223386 0)
(0.35928 -0.014601 0)
(0.370097 -0.00827003 0)
(0.376455 -0.00235076 0)
(0.378244 0.00408721 0)
(0.375198 0.0122708 0)
(0.367617 0.0242297 0)
(0.358018 0.0432726 0)
(0.352242 0.0746456 0)
(0.341275 0.115123 0)
(0.287475 0.14785 0)
(0.145028 0.141362 0)
(0.0172435 0.0180247 0)
(0.0622651 -0.14641 0)
(-0.0339487 0.0656159 0)
(-0.0375277 -0.00991315 0)
(-0.00276587 -0.0786618 0)
(0.0590538 -0.114123 0)
(0.128167 -0.119951 0)
(0.193073 -0.105935 0)
(0.246562 -0.0840716 0)
(0.287081 -0.062569 0)
(0.31687 -0.0448794 0)
(0.33898 -0.0313908 0)
(0.355653 -0.021128 0)
(0.368024 -0.0126914 0)
(0.37636 -0.00472084 0)
(0.380389 0.00414773 0)
(0.37954 0.0150928 0)
(0.373217 0.0294524 0)
(0.361813 0.0491172 0)
(0.349191 0.0780775 0)
(0.348944 0.121749 0)
(0.353967 0.174134 0)
(0.308193 0.190718 0)
(0.203155 0.0736456 0)
(0.133057 -0.0892209 0)
(-0.0299391 0.0794616 0)
(-0.0268713 -0.0159054 0)
(0.00846562 -0.10111 0)
(0.0682975 -0.14516 0)
(0.134653 -0.151521 0)
(0.196197 -0.132953 0)
(0.245955 -0.105048 0)
(0.283421 -0.0783186 0)
(0.311653 -0.0568186 0)
(0.333806 -0.0406426 0)
(0.351751 -0.0283268 0)
(0.366142 -0.0180534 0)
(0.376852 -0.00812555 0)
(0.383396 0.00291706 0)
(0.385217 0.0163123 0)
(0.381924 0.0332088 0)
(0.373761 0.0548963 0)
(0.361212 0.0825548 0)
(0.351858 0.119428 0)
(0.36315 0.170748 0)
(0.374073 0.205735 0)
(0.304518 0.13349 0)
(0.181461 -0.00280241 0)
(-0.0247181 0.0894242 0)
(-0.0127669 -0.02408 0)
(0.0214133 -0.122382 0)
(0.0776007 -0.174584 0)
(0.140269 -0.181524 0)
(0.198192 -0.158302 0)
(0.244318 -0.124492 0)
(0.279027 -0.0930719 0)
(0.306176 -0.0684864 0)
(0.328934 -0.0502735 0)
(0.348681 -0.036349 0)
(0.365509 -0.024474 0)
(0.378864 -0.0127355 0)
(0.387989 0.000378908 0)
(0.392277 0.0161195 0)
(0.391541 0.0353537 0)
(0.386314 0.0590535 0)
(0.377409 0.0876395 0)
(0.365943 0.120353 0)
(0.36171 0.161809 0)
(0.380736 0.205383 0)
(0.340438 0.185927 0)
(0.208388 0.113535 0)
(-0.0176644 0.0945294 0)
(0.00489521 -0.0348755 0)
(0.0382904 -0.143406 0)
(0.0902951 -0.20307 0)
(0.147371 -0.210615 0)
(0.200027 -0.182587 0)
(0.241951 -0.143035 0)
(0.274085 -0.107581 0)
(0.300697 -0.0806758 0)
(0.324695 -0.0609915 0)
(0.346811 -0.0457331 0)
(0.366523 -0.0322482 0)
(0.382847 -0.0184676 0)
(0.394795 -0.00301804 0)
(0.401544 0.0149831 0)
(0.40294 0.0362097 0)
(0.399685 0.0617161 0)
(0.392936 0.091832 0)
(0.384384 0.125056 0)
(0.371487 0.16104 0)
(0.375596 0.207201 0)
(0.350615 0.231001 0)
(0.235036 0.232596 0)
(-0.00841655 0.0945414 0)
(0.0259874 -0.0475099 0)
(0.0658751 -0.164539 0)
(0.115176 -0.228622 0)
(0.162555 -0.236173 0)
(0.205747 -0.203475 0)
(0.241616 -0.158667 0)
(0.270831 -0.120233 0)
(0.296996 -0.0922696 0)
(0.322251 -0.0721939 0)
(0.346567 -0.0564074 0)
(0.368872 -0.0418899 0)
(0.387898 -0.0263954 0)
(0.402589 -0.00834563 0)
(0.412054 0.0130882 0)
(0.416012 0.0369369 0)
(0.414964 0.0638255 0)
(0.409491 0.094052 0)
(0.402949 0.127844 0)
(0.39122 0.163427 0)
(0.381762 0.211688 0)
(0.364445 0.271078 0)
(0.233611 0.382278 0)
(0.0239413 -0.019741 0)
(0.0558767 -0.00874237 0)
(0.0470152 0.00414628 0)
(0.0137345 0.0112138 0)
(-0.0316402 0.0139103 0)
(-0.0775927 0.01369 0)
(-0.118402 0.011996 0)
(-0.152292 0.0101447 0)
(-0.180789 0.00874107 0)
(-0.206501 0.00795877 0)
(-0.231546 0.00762404 0)
(-0.257006 0.00717446 0)
(-0.280638 0.00588582 0)
(-0.298411 0.00313238 0)
(-0.302653 -0.0019689 0)
(-0.282129 -0.0100733 0)
(-0.225493 -0.0204131 0)
(-0.134631 -0.0283413 0)
(-0.0396347 -0.0233635 0)
(-0.0110233 -0.0219505 0)
(-0.0258439 -0.00061733 0)
(-0.0549963 0.0190224 0)
(-0.0872332 0.0298984 0)
(-0.11971 0.0330237 0)
(-0.14711 0.0302119 0)
(-0.166993 0.0248207 0)
(-0.180464 0.0202119 0)
(-0.192179 0.0179574 0)
(-0.206958 0.0179843 0)
(-0.226418 0.0190486 0)
(-0.248846 0.0194179 0)
(-0.271951 0.0173312 0)
(-0.291267 0.0106448 0)
(-0.299252 -0.00310898 0)
(-0.283169 -0.0263893 0)
(-0.229209 -0.0570193 0)
(-0.137351 -0.0809297 0)
(-0.039697 -0.0675051 0)
(-0.0144456 -0.00786325 0)
(-0.0308895 0.0132309 0)
(-0.0599655 0.0331856 0)
(-0.0861745 0.0446714 0)
(-0.113326 0.0467372 0)
(-0.138798 0.0410526 0)
(-0.159605 0.032334 0)
(-0.175932 0.0260928 0)
(-0.191024 0.0245354 0)
(-0.20828 0.0268286 0)
(-0.229308 0.0300968 0)
(-0.253855 0.0318516 0)
(-0.279899 0.0296579 0)
(-0.303255 0.0197497 0)
(-0.315743 -0.00246699 0)
(-0.303317 -0.0418719 0)
(-0.249421 -0.0949758 0)
(-0.151563 -0.136723 0)
(-0.0440409 -0.114408 0)
(-0.00374682 -0.00167449 0)
(-0.0065032 0.0233702 0)
(-0.0334617 0.0471024 0)
(-0.0644241 0.0609895 0)
(-0.100836 0.0634169 0)
(-0.135175 0.0553062 0)
(-0.160787 0.0428796 0)
(-0.177699 0.0346781 0)
(-0.191356 0.0331925 0)
(-0.207692 0.0372267 0)
(-0.229396 0.0426897 0)
(-0.256116 0.0461702 0)
(-0.286098 0.0443826 0)
(-0.315487 0.0318651 0)
(-0.335769 0.00116685 0)
(-0.330655 -0.0557684 0)
(-0.278755 -0.134965 0)
(-0.172845 -0.198987 0)
(-0.0506642 -0.168493 0)
(0.00731065 0.000424174 0)
(0.0183414 0.0288279 0)
(-0.011682 0.0620919 0)
(-0.0526134 0.0825225 0)
(-0.100046 0.0860286 0)
(-0.141635 0.0727434 0)
(-0.168078 0.0531581 0)
(-0.181515 0.041499 0)
(-0.191166 0.0398641 0)
(-0.205185 0.0466254 0)
(-0.227032 0.0556951 0)
(-0.256024 0.0620704 0)
(-0.290837 0.062091 0)
(-0.328429 0.0484095 0)
(-0.360232 0.0101324 0)
(-0.367186 -0.0653952 0)
(-0.320466 -0.17561 0)
(-0.204169 -0.268703 0)
(-0.060426 -0.231403 0)
(0.0206655 -0.0228683 0)
(0.0373247 0.0331262 0)
(0.005374 0.0817392 0)
(-0.0464926 0.109633 0)
(-0.105425 0.11232 0)
(-0.154025 0.0901885 0)
(-0.17918 0.0602083 0)
(-0.186517 0.045405 0)
(-0.190215 0.0447269 0)
(-0.200607 0.0556943 0)
(-0.222431 0.0693775 0)
(-0.25408 0.0794657 0)
(-0.294655 0.0830152 0)
(-0.342688 0.0703241 0)
(-0.3903 0.0268951 0)
(-0.415607 -0.0677865 0)
(-0.378799 -0.215682 0)
(-0.249459 -0.349415 0)
(-0.0749627 -0.307418 0)
(0.0274157 -0.0118964 0)
(0.0681213 0.0325076 0)
(0.0233165 0.101409 0)
(-0.0418859 0.141784 0)
(-0.114789 0.14946 0)
(-0.172062 0.115266 0)
(-0.193542 0.0677912 0)
(-0.190473 0.049267 0)
(-0.185296 0.0476507 0)
(-0.1904 0.0625585 0)
(-0.212333 0.0830504 0)
(-0.247054 0.0983336 0)
(-0.294351 0.108319 0)
(-0.354988 0.0998485 0)
(-0.423888 0.0548746 0)
(-0.476941 -0.058537 0)
(-0.458182 -0.2557 0)
(-0.314798 -0.448064 0)
(-0.0968544 -0.402343 0)
(0.0982392 -0.117326 0)
(0.0960092 0.0422321 0)
(0.0560942 0.143005 0)
(-0.0253201 0.188404 0)
(-0.11943 0.187862 0)
(-0.194674 0.128033 0)
(-0.210473 0.0538127 0)
(-0.192272 0.0370065 0)
(-0.177543 0.0431466 0)
(-0.175266 0.0693125 0)
(-0.195548 0.100801 0)
(-0.232809 0.121505 0)
(-0.286706 0.139608 0)
(-0.361749 0.139004 0)
(-0.45744 0.0977917 0)
(-0.553177 -0.0330063 0)
(-0.570767 -0.290803 0)
(-0.411566 -0.55928 0)
(-0.126806 -0.517115 0)
(0.00864501 0.0735209 0)
(0.0716396 -0.0769977 0)
(0.140985 -0.197014 0)
(0.185919 -0.256795 0)
(0.205134 -0.260784 0)
(0.224211 -0.224779 0)
(0.248733 -0.176793 0)
(0.274754 -0.136651 0)
(0.301811 -0.108339 0)
(0.329671 -0.0881551 0)
(0.356722 -0.0716803 0)
(0.381152 -0.055771 0)
(0.401623 -0.0386414 0)
(0.417568 -0.019391 0)
(0.428498 0.00337447 0)
(0.43471 0.0328951 0)
(0.436838 0.0671182 0)
(0.4349 0.103068 0)
(0.431146 0.139496 0)
(0.42843 0.176331 0)
(0.423626 0.222913 0)
(0.457859 0.280917 0)
(0.454139 0.460924 0)
(0.0286519 0.00684211 0)
(0.159952 -0.153118 0)
(0.278117 -0.252814 0)
(0.304943 -0.285103 0)
(0.268363 -0.274999 0)
(0.246846 -0.244132 0)
(0.25786 -0.206154 0)
(0.284137 -0.171635 0)
(0.316852 -0.144448 0)
(0.352022 -0.121976 0)
(0.385239 -0.100424 0)
(0.413483 -0.0773208 0)
(0.435349 -0.0513572 0)
(0.450092 -0.0232767 0)
(0.459747 0.00556104 0)
(0.466117 0.0325405 0)
(0.467885 0.0613632 0)
(0.466611 0.091684 0)
(0.465261 0.123442 0)
(0.470671 0.159877 0)
(0.478643 0.203732 0)
(0.508935 0.239132 0)
(0.561181 0.341739 0)
(0.0571908 -0.114172 0)
(0.248279 -0.314877 0)
(0.383625 -0.344926 0)
(0.340837 -0.272932 0)
(0.235998 -0.238709 0)
(0.193646 -0.236176 0)
(0.195629 -0.230705 0)
(0.219505 -0.217171 0)
(0.256458 -0.200108 0)
(0.299436 -0.18156 0)
(0.345576 -0.159842 0)
(0.394065 -0.133343 0)
(0.441359 -0.102394 0)
(0.479451 -0.0669799 0)
(0.50303 -0.0264593 0)
(0.50936 0.0187978 0)
(0.499847 0.0718151 0)
(0.482843 0.119506 0)
(0.475051 0.146975 0)
(0.483826 0.170989 0)
(0.499476 0.196326 0)
(0.51561 0.209769 0)
(0.55055 0.241834 0)
(0.0935486 -0.281836 0)
(0.219583 -0.537209 0)
(0.246585 -0.38711 0)
(0.112177 -0.104376 0)
(-0.0508662 -0.107548 0)
(-0.0274839 -0.172565 0)
(-0.0765679 -0.193255 0)
(-0.111859 -0.199547 0)
(-0.117157 -0.19257 0)
(-0.118768 -0.188631 0)
(-0.0976183 -0.185578 0)
(0.0115309 -0.179645 0)
(0.166349 -0.133159 0)
(0.287385 -0.0836661 0)
(0.403339 -0.0283244 0)
(0.487149 0.0237149 0)
(0.525862 0.0663797 0)
(0.539818 0.0949255 0)
(0.549774 0.112348 0)
(0.547297 0.144845 0)
(0.539741 0.177468 0)
(0.535792 0.192694 0)
(0.538466 0.207 0)
(0.0342041 -0.503274 0)
(-0.0709464 -0.507038 0)
(-0.119548 0.0736307 0)
(-0.0960277 -0.053026 0)
(-0.0426418 -0.156338 0)
(-0.0387037 -0.1696 0)
(-0.045446 -0.162504 0)
(-0.0530656 -0.181034 0)
(-0.060263 -0.194188 0)
(-0.0532158 -0.213407 0)
(-0.033806 -0.24612 0)
(-0.0372731 -0.295716 0)
(-0.0764198 -0.276602 0)
(-0.149122 -0.220247 0)
(-0.113043 -0.154121 0)
(-0.106635 -0.0479743 0)
(-0.137019 0.0749943 0)
(0.281284 0.10005 0)
(0.45866 0.115193 0)
(0.517002 0.154655 0)
(0.547154 0.189739 0)
(0.567818 0.213805 0)
(0.569427 0.223966 0)
(-0.0847304 -0.299483 0)
(-0.192645 -0.318224 0)
(-0.179454 -0.2258 0)
(-0.0883569 -0.174295 0)
(-0.0567899 -0.175755 0)
(-0.0511128 -0.174176 0)
(-0.052431 -0.171945 0)
(-0.0567736 -0.178488 0)
(-0.0610362 -0.194087 0)
(-0.0551469 -0.22367 0)
(-0.0492141 -0.246962 0)
(-0.0541072 -0.231139 0)
(-0.09079 -0.170582 0)
(-0.143036 -0.145908 0)
(-0.0961378 -0.179646 0)
(0.0679164 -0.172678 0)
(0.275715 -0.164887 0)
(0.437198 -0.384213 0)
(0.489813 -0.123694 0)
(0.416963 0.111051 0)
(0.430714 0.146655 0)
(0.486222 0.183327 0)
(0.537351 0.222694 0)
(-0.0813555 -0.211569 0)
(-0.0879936 -0.372235 0)
(-0.0965793 -0.268147 0)
(-0.0638591 -0.203171 0)
(-0.0579513 -0.183787 0)
(-0.0508747 -0.17846 0)
(-0.0519145 -0.174332 0)
(-0.0542709 -0.179374 0)
(-0.0576812 -0.199632 0)
(-0.0594671 -0.230692 0)
(-0.0651906 -0.249256 0)
(-0.0720103 -0.215819 0)
(-0.0820796 -0.144075 0)
(-0.0795982 -0.160706 0)
(-0.00124973 -0.310248 0)
(0.0883237 -0.378557 0)
(0.222759 -0.380321 0)
(0.361729 -0.304795 0)
(0.528888 -0.0785015 0)
(0.674312 0.251495 0)
(0.676716 0.177502 0)
(0.535338 0.115931 0)
(0.351242 0.139851 0)
(-0.0332994 -0.159663 0)
(-0.0369397 -0.309929 0)
(-0.0628755 -0.237872 0)
(-0.0564535 -0.207715 0)
(-0.0500307 -0.190125 0)
(-0.0440258 -0.180953 0)
(-0.0425776 -0.172611 0)
(-0.0441848 -0.17358 0)
(-0.0502339 -0.190856 0)
(-0.0592562 -0.219506 0)
(-0.0725885 -0.237971 0)
(-0.0772806 -0.213435 0)
(-0.0526344 -0.166089 0)
(0.00798549 -0.21715 0)
(0.0496171 -0.354268 0)
(0.0629749 -0.437587 0)
(0.111967 -0.483529 0)
(0.194697 -0.48477 0)
(0.3376 -0.338895 0)
(0.562485 -0.0515124 0)
(0.755592 0.163545 0)
(0.810919 0.330275 0)
(0.662621 0.373171 0)
(-0.011328 -0.13209 0)
(-0.028267 -0.294623 0)
(-0.0443149 -0.240891 0)
(-0.0421927 -0.208582 0)
(-0.0398147 -0.194555 0)
(-0.0356032 -0.18464 0)
(-0.0323969 -0.174397 0)
(-0.0308771 -0.171004 0)
(-0.034005 -0.182973 0)
(-0.0422735 -0.207611 0)
(-0.0542245 -0.231006 0)
(-0.0557724 -0.23201 0)
(-0.0199413 -0.219695 0)
(0.0376422 -0.264116 0)
(0.0555445 -0.340041 0)
(0.0517403 -0.429333 0)
(0.0506508 -0.510269 0)
(0.0672383 -0.54847 0)
(0.137983 -0.480201 0)
(0.29788 -0.272886 0)
(0.517343 0.0122758 0)
(0.669704 0.299764 0)
(0.705213 0.482261 0)
(-0.00131906 -0.118924 0)
(-0.0161293 -0.280059 0)
(-0.0295227 -0.235677 0)
(-0.0302837 -0.20862 0)
(-0.0294959 -0.197255 0)
(-0.0262642 -0.188274 0)
(-0.0215133 -0.178364 0)
(-0.0159366 -0.172593 0)
(-0.0129151 -0.179 0)
(-0.0150096 -0.198359 0)
(-0.0206533 -0.223719 0)
(-0.0228013 -0.243473 0)
(-0.00163041 -0.25564 0)
(0.0268404 -0.288505 0)
(0.0425913 -0.348723 0)
(0.0386394 -0.423289 0)
(0.0145478 -0.496464 0)
(-0.0122875 -0.549164 0)
(-0.0299304 -0.533778 0)
(0.0049792 -0.408113 0)
(0.140707 -0.159725 0)
(0.304374 0.182427 0)
(0.435791 0.437665 0)
(0.00272993 -0.113577 0)
(-0.0080558 -0.266599 0)
(-0.0196536 -0.228827 0)
(-0.0213623 -0.207362 0)
(-0.0213343 -0.198997 0)
(-0.0187493 -0.192275 0)
(-0.0135575 -0.184717 0)
(-0.00568574 -0.17933 0)
(0.00231373 -0.182478 0)
(0.00679907 -0.197142 0)
(0.00746446 -0.220296 0)
(0.00568101 -0.246116 0)
(0.0105848 -0.269542 0)
(0.0199301 -0.303032 0)
(0.0212012 -0.346862 0)
(0.00024457 -0.401418 0)
(-0.0383913 -0.462733 0)
(-0.0862487 -0.510128 0)
(-0.15361 -0.508847 0)
(-0.199803 -0.403239 0)
(-0.211756 -0.192473 0)
(-0.116253 0.0886513 0)
(0.0436171 0.336159 0)
(0.00392337 -0.112941 0)
(-0.00408143 -0.256952 0)
(-0.0133181 -0.223474 0)
(-0.0151596 -0.205754 0)
(-0.0157557 -0.19996 0)
(-0.0139662 -0.195753 0)
(-0.0097178 -0.191355 0)
(-0.00234158 -0.188341 0)
(0.0067338 -0.190783 0)
(0.0141008 -0.201955 0)
(0.0174905 -0.221007 0)
(0.0161801 -0.244599 0)
(0.0127447 -0.269045 0)
(0.00676036 -0.298165 0)
(-0.00773204 -0.328445 0)
(-0.0359264 -0.365409 0)
(-0.0829951 -0.409741 0)
(-0.147676 -0.450111 0)
(-0.221277 -0.458225 0)
(-0.27419 -0.377618 0)
(-0.291876 -0.226124 0)
(-0.25386 -0.0125806 0)
(-0.144756 0.200073 0)
(0.00398498 -0.113679 0)
(-0.00198141 -0.249272 0)
(-0.00945513 -0.218688 0)
(-0.0113102 -0.204108 0)
(-0.0122149 -0.200303 0)
(-0.0113496 -0.198116 0)
(-0.00872928 -0.196352 0)
(-0.00376977 -0.195885 0)
(0.00293876 -0.198849 0)
(0.00895114 -0.207607 0)
(0.0114943 -0.222327 0)
(0.00892877 -0.240975 0)
(0.00166409 -0.260877 0)
(-0.0114093 -0.282607 0)
(-0.031374 -0.30462 0)
(-0.0595425 -0.327181 0)
(-0.103562 -0.351214 0)
(-0.173773 -0.376818 0)
(-0.26309 -0.385234 0)
(-0.336095 -0.337011 0)
(-0.355956 -0.231854 0)
(-0.308307 -0.0884387 0)
(-0.210793 0.0538801 0)
(0.00337832 -0.114826 0)
(-0.00110708 -0.243268 0)
(-0.00716123 -0.214728 0)
(-0.00902843 -0.202354 0)
(-0.0102369 -0.20002 0)
(-0.0102542 -0.199158 0)
(-0.00923368 -0.198967 0)
(-0.00697903 -0.20012 0)
(-0.00378751 -0.203613 0)
(-0.00110213 -0.210663 0)
(-0.00105542 -0.221528 0)
(-0.00525066 -0.235249 0)
(-0.0140876 -0.25004 0)
(-0.0278553 -0.265876 0)
(-0.0472466 -0.281417 0)
(-0.072624 -0.295082 0)
(-0.104557 -0.305362 0)
(-0.148511 -0.313355 0)
(-0.209343 -0.315761 0)
(-0.276681 -0.295827 0)
(-0.329282 -0.237051 0)
(-0.344183 -0.13546 0)
(-0.304442 -0.0186069 0)
(0.00263851 -0.115833 0)
(-0.000887648 -0.238424 0)
(-0.00591899 -0.211286 0)
(-0.00785994 -0.200496 0)
(-0.00935229 -0.19917 0)
(-0.0100997 -0.199085 0)
(-0.0103077 -0.199607 0)
(-0.0100898 -0.201353 0)
(-0.0097458 -0.204834 0)
(-0.0100671 -0.210485 0)
(-0.0123508 -0.218398 0)
(-0.0177664 -0.228176 0)
(-0.0269124 -0.238895 0)
(-0.040072 -0.249818 0)
(-0.0577634 -0.260078 0)
(-0.0806643 -0.268733 0)
(-0.109058 -0.273796 0)
(-0.143177 -0.271293 0)
(-0.182637 -0.254994 0)
(-0.224664 -0.221904 0)
(-0.261165 -0.175214 0)
(-0.280251 -0.116984 0)
(-0.2722 -0.0492257 0)
(0.00199313 -0.116529 0)
(-0.000987536 -0.234342 0)
(-0.00534793 -0.208171 0)
(-0.00738675 -0.198507 0)
(-0.00914342 -0.197844 0)
(-0.0104745 -0.198193 0)
(-0.0115515 -0.198964 0)
(-0.0125972 -0.200685 0)
(-0.0139719 -0.203681 0)
(-0.0161622 -0.208087 0)
(-0.0198894 -0.213872 0)
(-0.0258719 -0.220738 0)
(-0.0347409 -0.228137 0)
(-0.0467809 -0.235316 0)
(-0.0622823 -0.241367 0)
(-0.0816692 -0.24513 0)
(-0.105183 -0.245328 0)
(-0.132506 -0.240323 0)
(-0.161553 -0.227271 0)
(-0.188298 -0.203005 0)
(-0.208058 -0.166023 0)
(-0.21589 -0.118586 0)
(-0.207593 -0.0683779 0)
(0.00148871 -0.116848 0)
(-0.0012156 -0.230734 0)
(-0.00518006 -0.20523 0)
(-0.00731792 -0.196389 0)
(-0.00931417 -0.196125 0)
(-0.0111037 -0.196685 0)
(-0.0128222 -0.197491 0)
(-0.0146566 -0.198959 0)
(-0.0169469 -0.201315 0)
(-0.0200811 -0.204598 0)
(-0.0244815 -0.20874 0)
(-0.0306161 -0.213405 0)
(-0.0389486 -0.218248 0)
(-0.0497411 -0.222554 0)
(-0.0631294 -0.225616 0)
(-0.0791255 -0.22645 0)
(-0.0975503 -0.223838 0)
(-0.117742 -0.216135 0)
(-0.138189 -0.201629 0)
(-0.156319 -0.179469 0)
(-0.168768 -0.1504 0)
(-0.172159 -0.116488 0)
(-0.164342 -0.0811864 0)
(0.00113212 -0.116814 0)
(-0.00146536 -0.227383 0)
(-0.00523542 -0.202359 0)
(-0.00745697 -0.194147 0)
(-0.00966013 -0.19409 0)
(-0.0117969 -0.194702 0)
(-0.0139885 -0.19543 0)
(-0.0163681 -0.19659 0)
(-0.0191859 -0.198332 0)
(-0.0227714 -0.200636 0)
(-0.0274063 -0.203418 0)
(-0.0334373 -0.206394 0)
(-0.0411488 -0.209255 0)
(-0.0506727 -0.211414 0)
(-0.0621032 -0.212292 0)
(-0.0753126 -0.211082 0)
(-0.0899093 -0.206898 0)
(-0.105126 -0.198774 0)
(-0.119628 -0.185825 0)
(-0.131565 -0.1676 0)
(-0.138832 -0.144752 0)
(-0.139466 -0.119167 0)
(-0.132572 -0.0934484 0)
(0.000888757 -0.11651 0)
(-0.00168881 -0.224131 0)
(-0.00538803 -0.199494 0)
(-0.00767159 -0.191793 0)
(-0.0100391 -0.191819 0)
(-0.0124197 -0.192373 0)
(-0.014936 -0.192949 0)
(-0.0176838 -0.193792 0)
(-0.02083 -0.194977 0)
(-0.024621 -0.196479 0)
(-0.0292607 -0.198155 0)
(-0.0349964 -0.199841 0)
(-0.0419834 -0.201195 0)
(-0.0502748 -0.201807 0)
(-0.05989 -0.20121 0)
(-0.0705872 -0.198807 0)
(-0.0819388 -0.193971 0)
(-0.0932442 -0.186069 0)
(-0.103468 -0.174606 0)
(-0.111316 -0.159502 0)
(-0.115414 -0.141453 0)
(-0.114478 -0.12203 0)
(-0.108165 -0.10304 0)
(0.000749652 -0.116031 0)
(-0.00185227 -0.22088 0)
(-0.0055654 -0.19661 0)
(-0.0078778 -0.189353 0)
(-0.010365 -0.189385 0)
(-0.0128994 -0.189818 0)
(-0.0156102 -0.190202 0)
(-0.0185558 -0.190734 0)
(-0.0218754 -0.19144 0)
(-0.0257132 -0.192285 0)
(-0.0302177 -0.193128 0)
(-0.0355468 -0.193829 0)
(-0.0417562 -0.194097 0)
(-0.0488854 -0.193659 0)
(-0.0568773 -0.192128 0)
(-0.0654638 -0.189094 0)
(-0.0742511 -0.184122 0)
(-0.0826532 -0.176822 0)
(-0.0898792 -0.166951 0)
(-0.0950032 -0.154575 0)
(-0.0970956 -0.140337 0)
(-0.0952909 -0.125547 0)
(-0.0894562 -0.111527 0)
(0.000698882 -0.115446 0)
(-0.00194907 -0.21759 0)
(-0.00572482 -0.193705 0)
(-0.00802666 -0.186858 0)
(-0.0105867 -0.186851 0)
(-0.0132019 -0.187136 0)
(-0.0160041 -0.187317 0)
(-0.0190246 -0.18756 0)
(-0.022371 -0.187879 0)
(-0.0261421 -0.188198 0)
(-0.0304158 -0.188422 0)
(-0.0352839 -0.188392 0)
(-0.0407726 -0.187914 0)
(-0.0468568 -0.186785 0)
(-0.0534663 -0.18472 0)
(-0.0603617 -0.181428 0)
(-0.0671766 -0.176637 0)
(-0.0734437 -0.170102 0)
(-0.0785606 -0.161733 0)
(-0.0818619 -0.151655 0)
(-0.0827086 -0.140448 0)
(-0.0804701 -0.12924 0)
(-0.0751304 -0.119022 0)
(0.000715373 -0.114827 0)
(-0.00198574 -0.214237 0)
(-0.00583596 -0.190792 0)
(-0.00809094 -0.184341 0)
(-0.0106833 -0.184275 0)
(-0.013317 -0.184406 0)
(-0.0161322 -0.184396 0)
(-0.0191472 -0.18439 0)
(-0.0224275 -0.184387 0)
(-0.0260366 -0.184308 0)
(-0.0300241 -0.184067 0)
(-0.0344318 -0.183529 0)
(-0.0392612 -0.182559 0)
(-0.044467 -0.181 0)
(-0.0499436 -0.178673 0)
(-0.0554909 -0.17536 0)
(-0.0608084 -0.170917 0)
(-0.0655245 -0.165185 0)
(-0.0691848 -0.158171 0)
(-0.0712992 -0.150012 0)
(-0.0714261 -0.141235 0)
(-0.0690831 -0.132842 0)
(-0.0643109 -0.125633 0)
(0.00077515 -0.114229 0)
(-0.0019726 -0.210816 0)
(-0.00588214 -0.187893 0)
(-0.0080588 -0.18184 0)
(-0.0106445 -0.181705 0)
(-0.0132491 -0.181687 0)
(-0.0160214 -0.181509 0)
(-0.0189647 -0.181296 0)
(-0.0221197 -0.181033 0)
(-0.0255245 -0.180655 0)
(-0.0291979 -0.180082 0)
(-0.0331667 -0.179205 0)
(-0.0374175 -0.17792 0)
(-0.0418791 -0.176129 0)
(-0.0464428 -0.173704 0)
(-0.0509567 -0.170513 0)
(-0.0551638 -0.166496 0)
(-0.0587792 -0.161543 0)
(-0.0614626 -0.155713 0)
(-0.0628445 -0.149144 0)
(-0.0626231 -0.142326 0)
(-0.060408 -0.136168 0)
(-0.0562976 -0.131359 0)
(0.000851492 -0.113687 0)
(-0.00192024 -0.20735 0)
(-0.00584148 -0.18504 0)
(-0.00791379 -0.179384 0)
(-0.0104629 -0.179181 0)
(-0.0130004 -0.179026 0)
(-0.0156876 -0.178707 0)
(-0.0185156 -0.178322 0)
(-0.0215097 -0.17786 0)
(-0.024688 -0.17726 0)
(-0.0280509 -0.176454 0)
(-0.0316085 -0.175369 0)
(-0.0353552 -0.173893 0)
(-0.039208 -0.171991 0)
(-0.0430439 -0.169581 0)
(-0.0467779 -0.16659 0)
(-0.0501869 -0.163002 0)
(-0.0530444 -0.15878 0)
(-0.0551032 -0.153951 0)
(-0.0560882 -0.14868 0)
(-0.055796 -0.143429 0)
(-0.0538893 -0.139038 0)
(-0.0505364 -0.13618 0)
(0.000913034 -0.113217 0)
(-0.00182414 -0.203889 0)
(-0.00568231 -0.182267 0)
(-0.00763799 -0.176998 0)
(-0.0101237 -0.176732 0)
(-0.0125658 -0.176458 0)
(-0.0151377 -0.176022 0)
(-0.0178218 -0.175504 0)
(-0.0206356 -0.174891 0)
(-0.0235808 -0.17413 0)
(-0.0266615 -0.173164 0)
(-0.0298513 -0.171942 0)
(-0.0331549 -0.170386 0)
(-0.0365133 -0.168444 0)
(-0.0397864 -0.166108 0)
(-0.0429333 -0.163351 0)
(-0.045797 -0.160163 0)
(-0.0481606 -0.156567 0)
(-0.0498394 -0.152574 0)
(-0.0506811 -0.148372 0)
(-0.0505243 -0.144348 0)
(-0.0490965 -0.141337 0)
(-0.0465778 -0.14002 0)
(0.000947977 -0.112829 0)
(-0.00166591 -0.200516 0)
(-0.00537452 -0.179611 0)
(-0.00720502 -0.174704 0)
(-0.00960603 -0.174378 0)
(-0.0119299 -0.174002 0)
(-0.0143685 -0.173469 0)
(-0.0168945 -0.172852 0)
(-0.0195216 -0.172129 0)
(-0.022242 -0.171256 0)
(-0.0250571 -0.170185 0)
(-0.027945 -0.168876 0)
(-0.030881 -0.167291 0)
(-0.0338268 -0.165365 0)
(-0.036683 -0.16313 0)
(-0.039403 -0.160594 0)
(-0.0418821 -0.157764 0)
(-0.0439505 -0.154672 0)
(-0.0454811 -0.151366 0)
(-0.0463551 -0.148006 0)
(-0.0464697 -0.144925 0)
(-0.0456376 -0.142949 0)
(-0.0440124 -0.14278 0)
(0.000967325 -0.112548 0)
(-0.00141203 -0.197331 0)
(-0.00490183 -0.177109 0)
(-0.0066046 -0.172517 0)
(-0.00889447 -0.172139 0)
(-0.0110793 -0.171677 0)
(-0.0133749 -0.171065 0)
(-0.015736 -0.170368 0)
(-0.0181733 -0.169562 0)
(-0.0206799 -0.168614 0)
(-0.0232619 -0.167472 0)
(-0.0258936 -0.166122 0)
(-0.0285313 -0.164522 0)
(-0.0311607 -0.162646 0)
(-0.0337032 -0.160513 0)
(-0.036123 -0.158171 0)
(-0.0383577 -0.155625 0)
(-0.0402809 -0.152936 0)
(-0.0418068 -0.150157 0)
(-0.0428531 -0.147407 0)
(-0.0433604 -0.145032 0)
(-0.0432111 -0.143783 0)
(-0.0426154 -0.144457 0)
(0.00101033 -0.112447 0)
(-0.00104083 -0.194417 0)
(-0.00427781 -0.17479 0)
(-0.00584621 -0.170457 0)
(-0.00800351 -0.17004 0)
(-0.0100266 -0.169506 0)
(-0.0121599 -0.168828 0)
(-0.0143421 -0.168061 0)
(-0.0165933 -0.167187 0)
(-0.0188922 -0.166178 0)
(-0.021257 -0.164997 0)
(-0.0236677 -0.163621 0)
(-0.026066 -0.162024 0)
(-0.0284477 -0.160203 0)
(-0.0307697 -0.158157 0)
(-0.0329866 -0.155966 0)
(-0.0350686 -0.153627 0)
(-0.036959 -0.151227 0)
(-0.0385831 -0.148808 0)
(-0.0399246 -0.146475 0)
(-0.0409259 -0.144545 0)
(-0.0415486 -0.143776 0)
(-0.0420345 -0.144992 0)
(0.00113599 -0.112628 0)
(-0.00054694 -0.191803 0)
(-0.00355767 -0.172663 0)
(-0.00496898 -0.168542 0)
(-0.00697637 -0.168102 0)
(-0.0088104 -0.167512 0)
(-0.010758 -0.166776 0)
(-0.0127403 -0.16595 0)
(-0.0147811 -0.165017 0)
(-0.0168686 -0.163949 0)
(-0.0190162 -0.16274 0)
(-0.0212046 -0.161341 0)
(-0.0233925 -0.15975 0)
(-0.0255672 -0.157967 0)
(-0.0277081 -0.155995 0)
(-0.0297812 -0.15389 0)
(-0.0317778 -0.151695 0)
(-0.0336876 -0.14946 0)
(-0.035466 -0.147242 0)
(-0.0371447 -0.145128 0)
(-0.0387183 -0.143388 0)
(-0.0401807 -0.142803 0)
(-0.0417982 -0.144199 0)
(0.00138337 -0.11318 0)
(3.69228e-05 -0.189462 0)
(-0.00281769 -0.170708 0)
(-0.0040257 -0.166781 0)
(-0.00587938 -0.166338 0)
(-0.00749714 -0.165707 0)
(-0.0092299 -0.164929 0)
(-0.0109805 -0.16405 0)
(-0.0127761 -0.163062 0)
(-0.0146215 -0.161947 0)
(-0.0165204 -0.160695 0)
(-0.0184554 -0.159273 0)
(-0.0204091 -0.157677 0)
(-0.022363 -0.155907 0)
(-0.0243098 -0.153978 0)
(-0.0262399 -0.151914 0)
(-0.0281433 -0.149777 0)
(-0.0300433 -0.147594 0)
(-0.031946 -0.145419 0)
(-0.033917 -0.143322 0)
(-0.03599 -0.141549 0)
(-0.0382061 -0.140822 0)
(-0.0409815 -0.142022 0)
(0.00175242 -0.114188 0)
(0.000664721 -0.187311 0)
(-0.0021296 -0.168891 0)
(-0.00308574 -0.16518 0)
(-0.00478898 -0.16476 0)
(-0.00616997 -0.164104 0)
(-0.00766641 -0.163298 0)
(-0.00915331 -0.162382 0)
(-0.0106745 -0.16135 0)
(-0.0122312 -0.160195 0)
(-0.0138271 -0.158898 0)
(-0.0154561 -0.157447 0)
(-0.0171087 -0.155831 0)
(-0.0187783 -0.154052 0)
(-0.0204563 -0.152125 0)
(-0.0221489 -0.150064 0)
(-0.0238646 -0.147904 0)
(-0.0256346 -0.145675 0)
(-0.027499 -0.143404 0)
(-0.0295667 -0.141151 0)
(-0.0318925 -0.139116 0)
(-0.0345855 -0.137957 0)
(-0.038208 -0.13853 0)
(0.00223166 -0.115756 0)
(0.00129401 -0.185267 0)
(-0.00155935 -0.167224 0)
(-0.0022202 -0.163768 0)
(-0.00379468 -0.163402 0)
(-0.00493092 -0.162742 0)
(-0.0061924 -0.161929 0)
(-0.00741339 -0.161 0)
(-0.00864414 -0.159946 0)
(-0.00988605 -0.158762 0)
(-0.0111421 -0.157437 0)
(-0.0124117 -0.15596 0)
(-0.0136929 -0.154322 0)
(-0.0149855 -0.152524 0)
(-0.0162884 -0.150574 0)
(-0.0176091 -0.148488 0)
(-0.0189624 -0.146269 0)
(-0.0203899 -0.143931 0)
(-0.021946 -0.141478 0)
(-0.0237462 -0.138954 0)
(-0.0258733 -0.136495 0)
(-0.0284982 -0.134641 0)
(-0.0323127 -0.134099 0)
(0.00280432 -0.117992 0)
(0.00189479 -0.18322 0)
(-0.00114403 -0.165755 0)
(-0.001504 -0.162606 0)
(-0.00300752 -0.162321 0)
(-0.00390956 -0.161672 0)
(-0.00497264 -0.16088 0)
(-0.00596022 -0.159963 0)
(-0.00692807 -0.158917 0)
(-0.0078748 -0.157736 0)
(-0.0088002 -0.156413 0)
(-0.00970504 -0.154936 0)
(-0.0105907 -0.153298 0)
(-0.0114583 -0.1515 0)
(-0.0123085 -0.149546 0)
(-0.0131434 -0.147441 0)
(-0.0139742 -0.145176 0)
(-0.0148382 -0.142739 0)
(-0.0157802 -0.140112 0)
(-0.0168978 -0.137307 0)
(-0.0182767 -0.134399 0)
(-0.0200831 -0.131737 0)
(-0.0231668 -0.12979 0)
(0.00346132 -0.120878 0)
(0.00240453 -0.180935 0)
(-0.000947061 -0.164386 0)
(-0.000986416 -0.161634 0)
(-0.00251625 -0.16142 0)
(-0.00322094 -0.160792 0)
(-0.00415713 -0.160043 0)
(-0.00498048 -0.159166 0)
(-0.00575839 -0.158159 0)
(-0.00648359 -0.157021 0)
(-0.00715049 -0.15574 0)
(-0.007758 -0.154306 0)
(-0.00830626 -0.152711 0)
(-0.00879413 -0.150955 0)
(-0.00921149 -0.149044 0)
(-0.00954945 -0.146973 0)
(-0.00980948 -0.144726 0)
(-0.0100049 -0.142274 0)
(-0.0101486 -0.139577 0)
(-0.0102873 -0.136623 0)
(-0.0104884 -0.133409 0)
(-0.0108331 -0.130078 0)
(-0.012183 -0.126827 0)
(0.00414651 -0.124156 0)
(0.00278812 -0.178046 0)
(-0.000971787 -0.162805 0)
(-0.000690393 -0.160551 0)
(-0.00233645 -0.160376 0)
(-0.00290287 -0.159775 0)
(-0.0037957 -0.159083 0)
(-0.00453842 -0.158266 0)
(-0.00522244 -0.157326 0)
(-0.00583073 -0.156257 0)
(-0.0063522 -0.155049 0)
(-0.00678495 -0.15369 0)
(-0.00712619 -0.152176 0)
(-0.00736706 -0.150509 0)
(-0.0074824 -0.148695 0)
(-0.00744734 -0.146731 0)
(-0.00724697 -0.144596 0)
(-0.00686074 -0.142257 0)
(-0.00625234 -0.139669 0)
(-0.00540076 -0.136798 0)
(-0.00431995 -0.133594 0)
(-0.00293636 -0.129997 0)
(-0.00195374 -0.12601 0)
(0.00477898 -0.127824 0)
(0.00303369 -0.174567 0)
(-0.00114809 -0.161061 0)
(-0.000575773 -0.159392 0)
(-0.002388 -0.159205 0)
(-0.00286532 -0.158656 0)
(-0.00378066 -0.158027 0)
(-0.0045104 -0.157281 0)
(-0.00517697 -0.156418 0)
(-0.0057596 -0.155431 0)
(-0.0062466 -0.154312 0)
(-0.00663455 -0.15305 0)
(-0.00691902 -0.151642 0)
(-0.00707853 -0.150104 0)
(-0.00707281 -0.148443 0)
(-0.00686594 -0.146662 0)
(-0.00642564 -0.144741 0)
(-0.00569967 -0.142656 0)
(-0.00459809 -0.140388 0)
(-0.00304083 -0.137876 0)
(-0.000953695 -0.135067 0)
(0.00187788 -0.131797 0)
(0.00503001 -0.127988 0)
(0.00521924 -0.132589 0)
(0.00312234 -0.171257 0)
(-0.00136048 -0.159928 0)
(-0.000563023 -0.158908 0)
(-0.00251311 -0.158666 0)
(-0.00294236 -0.158201 0)
(-0.0038847 -0.157641 0)
(-0.00462633 -0.156968 0)
(-0.00531242 -0.156187 0)
(-0.00592134 -0.155291 0)
(-0.0064441 -0.154274 0)
(-0.00687587 -0.153124 0)
(-0.00721017 -0.151849 0)
(-0.00741147 -0.15047 0)
(-0.00743057 -0.149013 0)
(-0.00723051 -0.147482 0)
(-0.00676564 -0.145864 0)
(-0.00597155 -0.14416 0)
(-0.00470605 -0.142372 0)
(-0.00284899 -0.140455 0)
(-0.000268538 -0.138387 0)
(0.00335261 -0.136017 0)
(0.00790211 -0.133279 0)
(0.00522871 -0.138171 0)
(0.0029751 -0.168159 0)
(-0.00146528 -0.159353 0)
(-0.000575394 -0.158976 0)
(-0.0025347 -0.158663 0)
(-0.00293112 -0.158291 0)