/*--------------------------------*- C++ -*----------------------------------*\
| =========                 |                                                 |
| \\      /  F ield         | OpenFOAM: The Open Source CFD Toolbox           |
|  \\    /   O peration     | Version:  2206                                  |
|   \\  /    A nd           | Website:  www.openfoam.com                      |
|    \\/     M anipulation  |                                                 |
\*---------------------------------------------------------------------------*/
FoamFile
{
    version     2.0;
    format      ascii;
    arch        "LSB;label=32;scalar=64";
    class       volScalarField;
    location    "0.6";
    object      alpha.water;
}
// * * * * * * * * * * * * * * * * * * * * * * * * * * * * * * * * * * * * * //

dimensions      [0 0 0 0 0 0 0];

internalField   nonuniform List<scalar> 
2268
(
1
1
1
1
1
1
1
1
1
1
1
1
1
1
1
1
1
1
0.999999
0.999999
0.999999
1
1
1
1
1
1
1
1
1
1
1
1
1
1
1
1
1
1
1
1
1
0.999999
0.999999
0.999999
1
1
1
1
1
1
1
1
1
1
1
1
1
1
1
1
1
1
1
1
1
0.999999
0.999999
0.999999
1
1
1
1
1
1
1
1
1
1
1
1
1
1
1
1
1
1
1
1
1
0.999999
0.999999
1
1
1
1
1
1
1
1
1
1
1
1
1
1
1
1
1
1
1
1
1
1
0.999999
1
1
1
1
1
1
1
1
1
1
1
1
1
1
1
1
1
1
1
1
1
1
1
1
1
1
1
1
1
1
1
1
1
1
1
1
1
1
1
1
1
1
1
1
1
1
1
1
1
1
1
1
1
1
1
1
1
1
1
1
1
1
1
1
1
1
1
1
1
0.290879
0.290879
0.290864
0.282984
0.274724
0.304917
0.344569
0.41156
0.524909
0.712206
0.92522
0.848093
0.645304
0.645304
0.744983
0.877486
0.87749
0.877309
0.870787
0.290879
0.290864
0.110088
0.0359805
0.0367723
0.0370745
0.0384732
0.375235
0.814874
0.969927
0.970879
0.969357
0.891876
0.645304
0.724582
0.877486
0.878411
0.879748
0.880022
0.29063
0.259864
0.0359805
0.0359805
0.0359805
0.0369984
0.328172
0.875114
0.969927
0.970879
0.970997
0.971092
0.970997
0.887965
0.728492
0.877486
0.87739
0.830042
0.907381
0.28936
0.0863567
0.0365067
0.0359805
0.0366787
0.308204
0.853355
0.960196
0.966728
0.970669
0.971083
0.971065
0.971096
0.970897
0.848939
0.877373
0.682652
0.653966
0.907481
0.286299
0.0373285
0.0368506
0.0366787
0.278497
0.856274
0.932412
0.949108
0.924871
0.793327
0.875777
0.971065
0.970897
0.970184
0.969537
0.733251
0.6451
0.645661
0.885666
0.15198
0.0453517
0.0372564
0.246831
0.877763
0.930357
0.921887
0.801608
0.399821
0.104698
0.169773
0.654877
0.970202
0.969529
0.967243
0.647285
0.6451
0.6451
0.877075
0.162155
0.137331
0.354673
0.918216
0.949539
0.940735
0.816739
0.221179
0.00160359
0.000164813
0.00013259
0.0333084
0.739023
0.967708
0.965975
0.863078
0.6451
0.645661
0.949081
0.568639
0.712156
0.978228
0.967862
0.959425
0.811947
0.218821
0.00111723
9.74116e-05
8.16318e-06
2.40421e-06
0.000132496
0.122993
0.899999
0.96493
0.958829
0.735008
0.80493
0.952051
1
1
1
0.999997
0.999989
0.999991
0.999997
0.999998
0.999999
1
1
1
1
1
1
1
1
1
1
1
1
1
1
1
0.999998
0.99954
0.989952
0.981619
0.988517
0.998215
0.999913
0.999969
0.999984
0.999991
0.999994
0.999995
0.999996
0.999997
0.999998
0.999998
0.999999
1
1
1
1
1
0.633862
0.59726
0.556554
0.468142
0.443397
0.496547
0.570168
0.608191
0.643119
0.674811
0.700966
0.724888
0.747684
0.769172
0.789135
0.807439
0.823937
0.838447
0.850824
0.860359
0.868099
0.867201
0.864065
4.48649e-07
3.94298e-06
3.62354e-05
0.0198595
0.0429559
0.0470719
0.0396901
0.0348831
0.0291038
0.0224186
0.021575
0.0262198
0.0343181
0.0441874
0.054927
0.0658667
0.0764403
0.0861592
0.094745
0.101862
0.105845
0.102358
0.0905753
3.19438e-07
2.91719e-07
1.43197e-09
2.8422e-11
3.17597e-13
-5.74431e-29
-1.97878e-12
-5.52878e-12
0
-1.92747e-21
0
-3.76459e-24
0
-2.82164e-10
-4.63135e-10
-5.68907e-10
-6.48684e-10
-6.85493e-10
-4.58273e-10
-1.86842e-11
6.80527e-34
2.39751e-10
9.20437e-10
3.10862e-07
4.84042e-08
1.37505e-09
1.96324e-08
3.03453e-10
1.51725e-11
-5.80012e-12
-2.53578e-11
-5.35084e-11
-1.00792e-10
-1.76476e-10
-2.84995e-10
-4.20417e-10
-5.67405e-10
-7.06332e-10
-8.19102e-10
-8.928e-10
-8.77237e-10
-8.46324e-11
-2.81811e-12
2.39736e-10
9.20437e-10
4.68909e-09
3.99957e-08
4.33509e-08
3.59634e-10
1.04185e-12
2.95019e-10
9.11121e-11
1.96999e-13
-2.59416e-11
-6.50093e-11
-1.30603e-10
-2.29473e-10
-3.5793e-10
-4.98859e-10
-6.27898e-10
-7.22365e-10
-7.68006e-10
-7.61726e-10
-6.3357e-10
-4.6513e-12
4.56854e-10
7.99216e-09
7.0932e-08
3.72862e-06
1.27749e-12
1.83251e-14
0
-8.86366e-14
-6.07244e-13
-2.94687e-12
-1.09434e-11
-3.17515e-11
-7.44484e-11
-1.4623e-10
-2.47036e-10
-3.64001e-10
-4.71821e-10
-5.44752e-10
-5.67347e-10
-5.39326e-10
-4.73597e-10
-3.01038e-10
-2.28539e-12
5.6132e-08
8.2877e-06
1.51822e-05
3.13194e-05
1.33724e-14
1.99167e-14
-1.10042e-14
-1.22794e-13
-7.71537e-13
-3.52011e-12
-1.21366e-11
-3.31927e-11
-7.43938e-11
-1.39697e-10
-2.23612e-10
-3.08049e-10
-3.67247e-10
-3.83505e-10
-3.55046e-10
-2.9446e-10
-2.22103e-10
-8.92023e-11
3.04136e-07
1.65989e-05
3.26839e-05
3.26824e-05
3.26853e-05
7.51309e-19
-6.12151e-16
-1.44071e-14
-1.27545e-13
-7.65416e-13
-3.36023e-12
-1.12924e-11
-2.99911e-11
-6.45887e-11
-1.15187e-10
-1.72871e-10
-2.20017e-10
-2.38121e-10
-2.21719e-10
-1.78946e-10
-1.24495e-10
-7.64155e-11
0
4.73926e-06
3.26549e-05
3.26824e-05
3.26856e-05
2.94976e-05
-3.04548e-17
-9.65374e-16
-1.34505e-14
-1.17752e-13
-6.8994e-13
-2.92235e-12
-9.42424e-12
-2.38939e-11
-4.87495e-11
-8.15381e-11
-1.1336e-10
-1.31746e-10
-1.28027e-10
-1.05118e-10
-7.21896e-11
-3.77601e-11
-1.63296e-11
0
2.26615e-06
2.18627e-05
3.26549e-05
3.26824e-05
9.34184e-06
-3.34507e-17
-8.10352e-16
-1.10698e-14
-9.46115e-14
-5.3666e-13
-2.18828e-12
-6.75427e-12
-1.62714e-11
-3.12513e-11
-4.86405e-11
-6.20869e-11
-6.53123e-11
-5.65794e-11
-4.0663e-11
-2.2689e-11
-4.52317e-12
0
1.58092e-08
7.23769e-10
5.83241e-10
1.82535e-05
1.97945e-05
7.41598e-06
-3.07654e-17
-5.88375e-16
-7.86078e-15
-6.50268e-14
-3.54936e-13
-1.38794e-12
-4.08375e-12
-9.30158e-12
-1.67202e-11
-2.40616e-11
-2.80132e-11
-2.65181e-11
-2.04076e-11
-1.27718e-11
-5.08017e-12
0
5.37947e-11
5.3437e-08
1.68785e-08
4.23444e-10
4.30924e-10
4.3901e-10
4.90022e-07
-2.30549e-17
-3.60306e-16
-4.67564e-15
-3.72283e-14
-1.94886e-13
-7.28268e-13
-2.03456e-12
-4.36335e-12
-7.31146e-12
-9.69593e-12
-1.02739e-11
-8.74693e-12
-5.9928e-12
-3.24453e-12
-6.08434e-13
1.01347e-11
5.31328e-11
2.56873e-10
2.51786e-10
4.19085e-10
4.24283e-10
4.30924e-10
4.42359e-10
-1.38438e-17
-1.79898e-16
-2.25089e-15
-1.7185e-14
-8.60449e-14
-3.06367e-13
-8.10387e-13
-1.63284e-12
-2.54803e-12
-3.11774e-12
-3.02071e-12
-2.33142e-12
-1.43671e-12
-6.59144e-13
2.53133e-13
5.39557e-12
4.60404e-11
1.19239e-10
6.5261e-10
1.436e-09
1.39812e-09
1.16163e-09
7.94076e-10
-6.42704e-18
-6.99308e-17
-8.37854e-16
-6.11733e-15
-2.92378e-14
-9.90177e-14
-2.47775e-13
-4.6937e-13
-6.84333e-13
-7.78204e-13
-6.98001e-13
-4.95949e-13
-2.77096e-13
-1.0201e-13
1.07751e-13
1.72487e-12
1.26413e-11
1.25068e-10
7.37996e-10
1.60973e-09
1.68527e-09
1.68527e-09
1.54665e-09
-2.15967e-18
-1.97349e-17
-2.25217e-16
-1.56999e-15
-7.15764e-15
-2.30608e-14
-5.47003e-14
-9.78784e-14
-1.34444e-13
-1.43849e-13
-1.21184e-13
-7.97312e-14
-3.85089e-14
-8.23058e-15
2.74451e-14
3.53734e-13
3.49116e-12
3.74291e-11
2.05182e-10
7.50213e-10
1.47265e-09
1.52731e-09
1.42076e-09
-4.63994e-19
-3.57653e-18
-3.87832e-17
-2.58203e-16
-1.1245e-15
-3.45657e-15
-7.81139e-15
-1.3304e-14
-1.73956e-14
-1.77289e-14
-1.41442e-14
-8.34792e-15
-2.62072e-15
2.20289e-15
8.27505e-15
5.45427e-14
7.73849e-13
5.65263e-12
2.69476e-11
1.38008e-10
4.59491e-10
5.46628e-10
4.63367e-10
-4.74894e-20
-3.11636e-19
-3.21346e-18
-2.0477e-17
-8.54872e-17
-2.51913e-16
-5.45992e-16
-8.92604e-16
-1.12188e-15
-1.09936e-15
-8.1957e-16
-3.50853e-16
1.07627e-16
8.32759e-16
2.34931e-15
8.10286e-15
8.82934e-14
5.30197e-13
2.81938e-12
1.57809e-11
4.60592e-11
5.43938e-11
5.01721e-11
-2.00768e-23
-9.39638e-23
-5.24908e-22
-1.75328e-21
-3.50288e-21
-3.50563e-21
2.24621e-21
3.73814e-20
1.10613e-19
2.11743e-19
1.99606e-18
1.31945e-17
2.88002e-17
1.3581e-16
6.1008e-16
1.65741e-15
7.4819e-15
2.84566e-14
1.62222e-13
1.01405e-12
2.39016e-12
2.60859e-12
2.53705e-12
-4.82366e-24
-2.08675e-23
-1.20309e-22
-4.26933e-22
-9.502e-22
-1.23571e-21
-5.0923e-22
1.95902e-22
1.05753e-21
1.23496e-21
3.4656e-21
1.22637e-19
2.14563e-18
1.73219e-17
9.70715e-17
3.53406e-16
1.13721e-15
2.47025e-15
5.30546e-15
1.89127e-14
4.95965e-14
6.62749e-14
6.57399e-14
-7.512e-25
-3.01775e-24
-1.79071e-23
-6.696e-23
-1.6322e-22
-2.66324e-22
-2.73952e-22
-1.46009e-22
-5.47746e-23
-1.64983e-23
7.30197e-23
8.48129e-21
1.66774e-19
1.61735e-18
9.48708e-18
4.61213e-17
1.95595e-16
7.87578e-16
1.23087e-15
1.40242e-15
1.45105e-15
1.40787e-15
1.34136e-15
-5.60897e-26
-2.08949e-25
-1.25146e-24
-4.74332e-24
-1.17256e-23
-1.94089e-23
-2.02257e-23
-1.06537e-23
-3.92679e-24
-1.16822e-24
-2.05162e-25
1.85894e-22
7.0783e-21
9.92935e-20
8.16361e-19
3.70433e-18
2.41452e-17
8.62918e-17
1.99367e-16
3.59747e-16
5.01695e-16
5.24922e-16
5.1306e-16
-2.68703e-33
-1.47309e-33
-2.79566e-34
-4.28407e-35
6.0888e-30
3.69438e-28
1.1091e-27
8.47158e-28
1.95197e-28
3.94285e-29
6.64395e-29
3.67913e-25
1.45795e-22
3.49766e-21
3.88994e-20
2.37828e-19
1.40788e-18
5.85222e-18
1.23798e-17
1.79613e-17
1.81736e-17
1.74157e-17
1.64056e-17
-1.26814e-41
-7.27296e-42
-1.33342e-42
-1.95835e-43
2.69757e-42
1.79445e-37
2.87834e-33
6.77474e-34
1.89948e-34
2.97621e-33
1.43305e-31
3.94291e-29
6.05176e-25
5.79395e-23
9.87972e-22
8.74418e-21
3.25899e-20
1.64278e-19
3.26504e-19
3.85464e-19
3.81351e-19
3.51927e-19
3.43682e-19
-5.23599e-42
-3.0094e-42
-5.32233e-43
-7.53089e-44
-9.64475e-45
9.93813e-44
7.08453e-42
1.28131e-40
1.52327e-38
1.04636e-36
7.50614e-35
9.73954e-33
2.33108e-28
6.01428e-25
1.16164e-23
8.45798e-23
3.68173e-22
1.10223e-21
2.8598e-21
5.98028e-21
7.14684e-21
6.80742e-21
5.9796e-21
-1.34322e-42
-8.09758e-43
-1.37869e-43
-1.87312e-44
-2.32411e-45
-1.35577e-46
9.70546e-45
2.17742e-43
2.423e-41
1.60883e-39
1.16217e-37
1.10052e-35
2.45608e-32
2.77384e-28
1.24758e-26
1.35334e-25
7.55069e-25
2.73312e-24
7.1716e-24
1.44176e-23
2.34e-23
3.21353e-23
3.45241e-23
-1.55476e-43
-1.06428e-43
-1.74464e-44
-2.27109e-45
-2.69713e-46
-3.06953e-47
-3.40602e-48
-2.93675e-49
6.08424e-48
4.52434e-46
4.1245e-44
4.18697e-42
1.38033e-35
3.80559e-31
3.1086e-29
3.60646e-28
1.9113e-27
6.12074e-27
1.37721e-26
2.43062e-26
3.64787e-26
4.85203e-26
6.04904e-26
-1.95155e-50
-1.24055e-51
-9.38084e-53
-7.5642e-54
-5.8036e-55
6.88586e-53
5.7716e-52
3.04059e-51
1.97771e-49
9.18091e-48
3.91182e-46
2.18974e-44
1.44976e-42
7.42786e-39
1.97078e-35
3.4588e-34
2.7099e-32
6.29859e-31
5.793e-30
2.89241e-29
9.25852e-29
2.11909e-28
3.75996e-28
-5.86151e-68
1.52614e-66
2.67435e-67
7.9699e-70
3.00738e-60
3.07609e-58
2.08457e-56
1.08452e-54
8.11753e-53
5.18722e-51
4.11313e-49
3.98258e-47
4.72731e-45
2.0185e-40
1.65011e-37
2.18646e-36
3.00931e-35
1.52468e-33
2.44746e-32
1.71192e-31
6.83136e-31
1.8089e-30
3.68219e-30
-3.34482e-68
-2.05108e-69
-1.49265e-70
-1.52536e-71
5.37811e-66
1.07094e-62
9.1845e-61
6.79102e-59
6.09439e-57
5.39513e-55
4.86115e-53
6.94774e-51
8.83866e-49
5.60343e-44
4.0649e-40
1.01494e-38
7.40713e-38
9.53052e-37
3.15515e-35
3.75572e-34
2.06608e-33
7.84891e-33
1.31742e-32
-1.23404e-68
-6.90623e-70
-4.79785e-71
-4.25206e-72
-2.34401e-73
5.21001e-71
4.18627e-68
5.38927e-66
5.12694e-64
7.01433e-62
9.94246e-60
1.54861e-57
1.71134e-55
4.3252e-49
4.81791e-44
9.24882e-42
1.10584e-40
5.47366e-40
8.61792e-39
2.14695e-37
1.96099e-36
8.1301e-36
1.86716e-35
-2.24676e-69
-1.16415e-70
-7.69709e-72
-5.24695e-73
-1.34558e-74
4.75094e-72
3.46513e-70
4.97231e-68
6.04225e-66
5.8332e-64
4.91709e-62
4.30349e-60
3.94291e-58
3.71149e-56
2.77988e-52
4.68112e-48
2.24955e-46
6.72994e-46
1.76813e-45
1.24204e-43
2.37127e-41
5.39822e-39
5.77912e-37
-1.86657e-93
-3.62867e-91
-5.98579e-91
-5.65246e-85
2.61656e-77
9.63808e-75
2.606e-72
4.98133e-70
7.7e-68
9.23188e-66
9.5846e-64
1.00736e-61
9.66694e-60
8.93982e-58
8.33149e-56
1.09801e-53
1.54528e-51
2.21203e-49
5.07257e-47
1.19124e-44
2.92939e-42
7.37712e-40
7.21414e-38
-1.31669e-93
-1.8605e-91
-3.99568e-91
-2.30862e-85
1.25277e-79
5.8186e-77
1.62115e-74
3.17935e-72
4.99566e-70
6.90762e-68
8.6773e-66
1.02337e-63
1.20711e-61
1.50001e-59
2.04586e-57
3.56919e-55
6.46062e-53
1.19473e-50
2.7539e-48
5.50848e-46
1.73203e-43
4.96576e-41
6.41522e-39
-6.82972e-94
-6.45775e-92
-2.02028e-91
-5.40331e-86
6.80167e-83
4.57362e-80
1.48632e-77
3.77822e-75
8.03579e-73
1.59593e-70
2.85313e-68
4.81946e-66
8.09798e-64
1.38928e-61
2.6969e-59
6.10961e-57
1.31761e-54
3.25776e-52
8.49382e-50
2.19208e-47
8.08931e-45
2.29934e-42
1.33443e-39
-2.30859e-94
-1.18019e-92
-6.90147e-92
-4.96635e-87
3.50815e-87
7.17609e-84
3.41618e-81
1.22836e-78
3.5789e-76
9.21238e-74
2.66216e-71
7.55274e-69
1.99988e-66
6.02099e-64
1.83397e-61
4.88499e-59
1.62783e-56
5.00159e-54
1.34681e-51
6.41217e-49
2.035e-46
8.76386e-44
1.70402e-40
-3.80535e-95
-2.50047e-94
-1.19867e-92
-9.15405e-88
-1.51929e-88
3.5334e-88
2.32202e-85
1.14656e-82
4.6851e-80
1.74654e-77
8.61447e-75
3.77645e-72
1.70402e-69
9.14609e-67
3.6691e-64
1.99902e-61
7.79349e-59
3.17964e-56
1.61285e-53
6.01395e-51
4.38566e-48
3.98621e-45
-2.48112e-45
-4.63736e-146
-2.09147e-125
-3.23818e-119
-1.30197e-106
7.18483e-95
2.88697e-93
1.83553e-90
1.32064e-87
7.69144e-85
4.6665e-82
3.7231e-79
2.19065e-76
2.0319e-73
1.34343e-70
1.2591e-67
8.38628e-65
7.59112e-62
5.31458e-59
3.23097e-56
3.25525e-53
1.99201e-50
3.63433e-47
-4.06777e-45
-5.436e-147
-6.97098e-126
-5.35304e-120
-2.27771e-107
-2.18864e-106
1.83989e-100
2.63689e-97
1.93362e-94
1.90013e-91
1.67435e-88
1.48195e-85
2.32105e-82
2.28631e-79
3.85808e-76
3.94582e-73
6.81752e-70
7.22066e-67
1.32856e-63
1.55105e-60
3.43387e-57
4.84484e-54
1.26723e-50
3.07792e-46
0
-1.56653e-126
-1.01587e-122
-1.69785e-113
-4.20477e-107
-3.49785e-108
-9.2165e-110
3.11008e-107
1.34465e-125
2.27379e-101
5.232e-98
1.72648e-94
4.25637e-91
2.33551e-87
7.11877e-84
3.72881e-80
1.19265e-76
6.80025e-73
2.40566e-69
1.71294e-65
7.06172e-62
4.48548e-58
5.99425e-52
0
-1.77906e-127
-1.57819e-128
-4.10251e-127
-4.07165e-121
-1.16015e-122
-1.81903e-124
1.85567e-122
-2.98434e-141
0
2.7043e-112
2.54446e-131
1.59036e-105
3.73418e-102
4.40615e-121
9.23014e-95
3.42701e-92
3.63491e-87
1.24302e-83
-8.12791e-102
0
2.39281e-72
2.8781e-73
1
0.999988
0.999948
0.999855
0.999993
0.999857
0.99169
0.971526
0.789958
0.589702
0.437094
0.314378
0.0259992
7.13353e-09
2.18582e-07
4.72298e-06
4.24745e-09
7.13353e-09
7.13353e-09
7.39042e-05
1.08478e-08
7.13353e-09
2.26349e-05
0.000273192
6.56105e-06
1.50189e-08
2.75469e-05
0.000161499
3.09767e-05
9.84639e-06
2.90149e-09
9.37333e-11
2.17843e-05
1.3472e-06
7.02701e-11
5.67043e-11
1.07168e-09
7.27283e-11
6.31599e-11
6.30114e-11
1.94944e-06
2.16649e-08
6.53002e-11
6.23378e-11
7.39455e-06
4.70577e-07
7.26721e-11
3.34236e-11
2.30782e-06
7.96526e-07
1.41326e-10
2.33533e-11
4.5117e-10
3.38582e-08
4.00256e-08
1.96239e-09
5.86346e-10
5.78862e-10
4.00496e-09
3.42904e-09
1.33869e-09
5.72388e-10
2.04326e-10
3.12172e-10
1.37745e-09
8.72767e-10
2.33165e-10
6.32715e-11
5.10848e-10
5.15154e-10
3.06238e-10
8.82438e-11
7.28717e-11
8.60569e-11
8.25809e-11
5.04302e-11
3.06304e-12
3.6955e-12
4.85008e-12
4.56558e-12
1.5437e-14
1.60777e-14
2.62108e-13
4.17774e-13
9.94934e-16
9.14039e-16
2.14982e-14
2.99724e-14
3.79046e-16
9.69124e-17
6.3673e-16
8.65724e-16
1.37913e-17
8.05112e-18
2.7778e-18
3.7563e-19
4.1202e-19
4.02847e-19
3.1264e-19
1.12305e-19
5.34025e-21
3.51883e-21
8.13673e-22
8.28478e-21
2.80412e-23
7.97237e-24
1.75953e-23
9.41302e-21
6.87011e-26
7.50995e-26
1.32065e-23
1.69016e-20
6.65548e-28
7.82617e-27
1.34725e-23
2.76225e-20
6.19565e-30
4.61689e-27
1.30319e-23
4.2289e-20
2.35819e-31
2.56854e-27
8.93547e-24
6.09508e-20
6.69917e-32
9.04487e-28
4.26439e-24
8.18767e-20
1.49437e-32
2.14547e-28
1.68587e-24
1.00846e-19
2.96468e-33
3.20524e-29
5.45939e-25
1.12561e-19
4.6907e-34
3.27589e-30
1.28077e-25
5.15162e-20
4.56887e-35
2.74815e-31
1.92174e-26
1.32024e-20
2.12379e-36
1.64645e-32
1.59614e-27
1.80814e-21
6.16183e-39
4.71701e-34
4.58239e-29
1.28672e-22
9.62319e-40
7.6175e-35
1.49027e-32
3.47656e-23
1.27032e-47
-7.06184e-41
2.34964e-35
1.59924e-23
1.65513e-53
2.17335e-42
1.07721e-40
1.34496e-28
1.74546e-92
0
-1.67674e-42
1.57549e-31
0.999605
0.998621
0.993958
0.900136
0.623676
0.174515
4.41794e-05
1.98108e-06
3.03162e-07
-4.48613e-08
4.40693e-08
2.51422e-06
0.000199604
0.231945
0.879078
0.947296
0.939248
0.930478
0.952495
0.924049
0.810274
0.539052
0.106497
6.94797e-06
1.3668e-06
-6.45886e-07
-8.14637e-08
-1.49135e-08
4.23917e-10
-3.25415e-10
4.41457e-08
8.52956e-06
0.000466959
0.21019
0.805631
0.95135
0.952676
0.952837
0.16477
2.06935e-05
2.37684e-05
7.82785e-06
1.45914e-06
1.29198e-07
9.74162e-09
-8.26401e-11
4.22435e-10
4.54671e-10
4.78911e-10
-4.54911e-10
3.71228e-07
2.95935e-05
0.000829336
0.174083
0.786413
0.952838
0.953415
9.01594e-06
1.32179e-05
2.27806e-05
6.73457e-05
8.43267e-05
2.39468e-05
3.73834e-09
3.36524e-10
4.20069e-10
4.53948e-10
4.58673e-10
4.62762e-10
1.93239e-08
2.7037e-06
5.58422e-05
0.00085373
0.433586
0.933272
0.954378
0.000169009
0.000198145
0.000200053
0.0002018
0.000176025
1.43382e-05
4.88672e-11
3.44757e-10
4.41043e-10
4.45737e-10
4.48066e-10
9.02302e-10
2.86708e-08
7.67135e-07
1.27996e-05
0.00015627
0.250169
0.883965
0.955185
0.000273192
0.000273192
0.000141718
4.57173e-05
4.40191e-11
4.37646e-11
4.6391e-11
3.76519e-10
4.4149e-10
4.4803e-10
7.6597e-10
1.15778e-08
3.70691e-08
4.33319e-06
4.47268e-05
0.000381033
0.203018
0.877409
0.955479
0.000170707
6.25536e-05
4.37948e-11
4.40574e-11
4.36352e-11
8.87852e-11
2.77205e-10
4.57132e-10
4.61488e-10
7.6344e-10
1.0938e-08
8.25106e-08
4.33908e-06
3.83375e-05
0.00041128
0.00421352
0.248861
0.901542
0.955515
4.49048e-11
4.44924e-11
4.42045e-11
4.36352e-11
7.03375e-11
1.91131e-10
2.97102e-10
2.99419e-10
4.63452e-10
5.97753e-09
1.19009e-07
2.80883e-06
3.97408e-05
0.000417509
0.0812892
0.226614
0.378918
0.951662
0.955518
5.41865e-11
5.37005e-11
6.68965e-11
9.32826e-11
1.29456e-10
1.71764e-10
1.65556e-10
1.71688e-10
3.63272e-10
6.64442e-09
1.57919e-07
3.35447e-06
4.62089e-05
0.000507831
0.190033
0.644032
0.61649
0.955707
0.955577
6.49641e-11
9.24656e-11
1.11925e-10
1.12326e-10
1.26719e-10
1.29474e-10
1.07085e-10
5.62845e-11
1.22172e-10
2.39462e-09
7.10014e-08
3.10765e-06
2.61033e-05
0.000222086
0.0600223
0.657708
0.93224
0.955706
0.955586
7.09031e-11
9.38528e-11
9.53292e-11
8.31518e-11
6.11176e-11
6.00522e-11
5.36958e-11
2.57207e-11
3.82508e-11
6.34741e-10
1.855e-08
3.99244e-07
0.000150479
0.00133369
0.000935862
0.16986
0.955706
0.955766
0.95571
3.309e-11
4.22849e-11
4.08069e-11
2.65306e-11
1.93244e-11
1.88942e-11
2.29013e-11
2.14996e-11
1.93031e-11
1.01938e-10
3.02203e-09
1.15359e-07
0.000242565
0.00138951
0.000354303
0.0515169
0.857398
0.955755
0.955755
1.2142e-11
1.11543e-11
8.35983e-12
5.63497e-12
4.88283e-12
5.83132e-12
1.03398e-11
1.43963e-11
1.42543e-11
2.05167e-11
3.19988e-10
9.91285e-09
0.000189501
0.00123161
9.99918e-05
0.0195826
0.629342
0.955763
0.955742
1.53854e-11
4.7014e-12
1.88002e-12
1.09999e-12
1.17335e-12
1.89753e-12
5.25525e-12
1.39853e-11
1.39863e-11
1.42526e-11
3.49969e-11
1.11078e-09
0.000159561
0.000517532
2.2216e-05
0.00642333
0.516359
0.955745
0.95574
3.78166e-10
9.46991e-12
5.80556e-13
1.95978e-13
2.95854e-13
8.2347e-13
4.96917e-12
1.68527e-11
1.8378e-11
1.80487e-11
1.97415e-11
9.4497e-11
6.77858e-05
3.34584e-06
1.63869e-07
1.39051e-05
0.302963
0.955737
0.95571
2.14754e-10
3.25176e-11
7.4824e-13
6.3151e-14
1.37281e-13
5.85928e-13
4.79747e-12
2.0957e-11
2.7033e-11
2.5385e-11
2.3083e-11
2.80982e-11
6.64842e-10
1.15846e-07
8.95178e-08
1.6387e-07
0.102415
0.949817
0.95561
1.90538e-11
3.53999e-12
2.32521e-13
4.11574e-14
1.06132e-13
4.93925e-13
4.21537e-12
1.82606e-11
3.39051e-11
3.4883e-11
3.49578e-11
3.59957e-11
1.05426e-10
6.06488e-08
7.98147e-08
8.32679e-08
0.0168964
0.646375
0.95554
1.24713e-11
1.09812e-12
7.29444e-14
3.92087e-14
9.80885e-14
4.27643e-13
3.64787e-12
1.32897e-11
3.72183e-11
8.59173e-11
6.49709e-11
6.0672e-11
7.04606e-11
6.2243e-08
7.93768e-08
7.95613e-08
2.00587e-05
0.381252
0.955522
1.35753e-11
1.44128e-12
8.34075e-14
3.56931e-14
9.84144e-14
4.22438e-13
3.11063e-12
1.00816e-11
5.15636e-11
1.44981e-10
9.67734e-11
7.04606e-11
4.65718e-08
1.60073e-07
8.47397e-08
8.75687e-08
1.6195e-07
0.352956
0.955513
2.83603e-12
8.95449e-13
8.88566e-14
2.78729e-14
8.77388e-14
4.30146e-13
2.37251e-12
8.6145e-12
5.21864e-11
1.44981e-10
1.19106e-10
7.48741e-11
1.71387e-07
1.76011e-07
9.09327e-08
9.90455e-08
1.09765e-07
0.353314
0.955513
3.58925e-13
1.67437e-13
2.37497e-14
1.68141e-14
7.02889e-14
4.32605e-13
2.02806e-12
7.78422e-12
3.07072e-11
1.33322e-10
1.23037e-10
7.54284e-11
6.53644e-08
6.93652e-08
1.0143e-05
1.09769e-07
2.07389e-07
0.351427
0.955513
2.31104e-14
7.85372e-15
1.74227e-15
7.24272e-15
6.00575e-14
4.29945e-13
1.94557e-12
6.79148e-12
1.75114e-11
8.11039e-11
1.22692e-10
7.41725e-11
7.54225e-11
3.02789e-07
5.17285e-05
7.02377e-07
1.2203e-05
0.348543
0.955513
6.71784e-16
2.07334e-16
4.39331e-16
6.93984e-15
7.52875e-14
4.64718e-13
1.8247e-12
5.28423e-12
1.15477e-11
3.52148e-11
8.41285e-11
7.4207e-11
7.4207e-11
8.45041e-07
5.17285e-05
3.49684e-06
4.90877e-06
0.337667
0.955513
4.3871e-19
7.93623e-18
3.63934e-16
2.10123e-14
1.47859e-13
5.75419e-13
1.54775e-12
3.24297e-12
6.62951e-12
1.15641e-11
2.46784e-11
2.52888e-10
6.45558e-11
1.30785e-10
4.14429e-05
0.00013524
4.78208e-06
0.32192
0.955512
3.12679e-19
1.44349e-17
1.19341e-15
6.00867e-14
2.69208e-13
5.7272e-13
8.95213e-13
1.58623e-12
3.63409e-12
1.53981e-11
2.04415e-11
3.27622e-10
4.43189e-11
6.45559e-11
1.08521e-05
0.000135944
3.14744e-06
0.295765
0.955509
3.59531e-19
3.66052e-17
7.75364e-15
1.02748e-13
3.09162e-13
4.62757e-13
9.56379e-13
1.92999e-12
9.95932e-12
2.85787e-11
2.0696e-11
2.12699e-11
3.29569e-11
4.42932e-11
1.12821e-06
0.00013598
1.3185e-06
0.258773
0.95482
9.74292e-19
1.48562e-16
2.57749e-14
1.33941e-13
2.03895e-13
2.31848e-13
3.19602e-13
4.96958e-12
8.73678e-11
3.40049e-11
1.16834e-09
2.77675e-09
1.05755e-08
1.391e-09
2.00969e-09
8.23877e-05
3.27405e-07
0.224067
0.937897
2.50156e-18
1.08302e-15
4.16123e-14
9.93995e-14
1.17239e-13
1.39785e-13
7.33932e-13
3.23966e-12
2.61226e-11
3.23195e-11
3.67819e-11
2.37663e-08
2.58189e-08
7.49293e-09
4.63602e-09
4.85554e-07
1.10018e-07
0.199959
0.924148
7.98393e-18
5.96627e-15
4.62795e-14
6.3287e-14
1.12274e-14
2.28395e-13
2.10788e-12
5.70878e-13
2.16168e-11
3.67123e-11
8.58318e-11
9.72145e-09
2.53431e-08
1.30191e-08
1.05153e-08
6.8726e-09
9.24115e-08
0.175533
0.923771
4.26474e-17
1.48316e-14
3.03683e-14
2.57284e-14
4.10423e-14
-9.19408e-12
2.89119e-10
1.51864e-09
3.0819e-10
8.65453e-11
1.29775e-10
1.04017e-09
3.6726e-09
8.84076e-09
9.4024e-09
7.22687e-09
-2.38271e-08
0.178522
0.876709
2.79169e-16
1.94425e-14
1.92166e-14
1.4108e-14
-5.2315e-12
4.04961e-11
3.46369e-09
9.62639e-08
7.26483e-05
3.09315e-09
-1.43267e-09
-3.52838e-09
5.63745e-09
9.43063e-09
-1.17414e-08
1.20545e-07
0.0011876
0.214977
0.243294
1.08654e-15
1.21971e-14
7.33399e-15
-3.44003e-13
1.31731e-12
-6.24071e-12
3.39637e-08
2.01842e-06
0.000158999
0.00229471
0.00131834
4.60448e-05
2.10444e-08
9.61456e-09
1.92055e-07
6.16585e-06
0.0198777
0.206613
0.00978553
2.161e-15
3.78932e-15
3.22205e-15
-1.30278e-12
-1.63202e-10
3.04435e-09
2.54674e-07
0.000458492
0.00249243
0.00470443
0.00381831
0.000203893
1.27249e-06
6.15388e-07
1.31466e-06
2.40873e-05
0.0260842
0.119508
0.00975184
2.54429e-15
9.53739e-16
2.13785e-16
-2.94878e-13
-4.14082e-10
1.055e-08
1.69854e-06
0.00742676
0.0074622
0.00556855
0.0051182
0.000894131
5.68127e-06
1.73288e-06
5.06249e-06
6.9861e-05
0.0387535
0.166966
0.00988483
2.08117e-15
-3.14278e-16
-6.59963e-15
-1.92709e-11
5.09691e-10
9.99098e-08
0.000904246
0.0108888
0.00673653
0.00148257
0.00415621
0.00267208
1.73921e-05
5.55918e-06
2.69912e-05
0.00632648
0.148722
0.166966
0.00918753
7.89182e-16
-1.98326e-15
-1.71803e-15
-2.29048e-10
6.62825e-10
6.47041e-07
0.00428395
0.0110496
0.00328178
0.000501881
0.00225182
0.00248182
2.57466e-05
2.33458e-05
0.000124067
0.0314279
0.147145
0.0856403
0.00230049
4.07603e-16
-4.17235e-15
-1.65734e-13
-3.03607e-11
-4.37429e-09
0.000254111
0.0108928
0.0110436
0.000506138
0.000420604
0.00115009
0.00216435
3.36315e-05
6.3182e-05
0.000225204
0.0378969
0.143341
2.5818e-05
1.68066e-05
1.97924e-16
-6.04357e-15
-1.59311e-12
-2.45034e-09
1.02218e-07
0.00327294
0.0220112
0.0107278
0.000353163
0.000374773
0.000420594
0.000583197
6.31047e-05
0.000143271
0.00182769
0.123915
0.126856
0.00359318
2.76421e-06
1.42188e-17
-5.79064e-15
-1.09604e-13
4.60432e-07
5.52089e-07
0.00559269
0.0220112
0.0159253
0.000351379
0.000353163
0.000374773
0.000371619
0.000143547
0.000472981
0.064633
0.123218
0.0316843
2.62717e-06
3.82755e-07
-1.63381e-18
-2.65061e-15
-9.21018e-14
2.60924e-10
1.84376e-06
0.00530887
0.0220112
0.0189517
0.000353163
0.000351329
0.000367336
0.000456578
0.000472507
0.0489308
0.0948496
0.0944154
0.00305716
2.43682e-07
2.64504e-09
-5.69426e-19
-1.14687e-16
-5.06705e-16
-1.12886e-15
-4.16436e-09
0.00165186
0.0188369
0.019398
0.00392324
0.000367336
0.000403431
0.00059304
0.0357953
0.0714871
0.070411
0.000811712
-4.5105e-10
-9.47794e-11
6.10532e-10
-3.16014e-23
-1.11183e-18
-4.41995e-15
-1.00064e-12
-3.34098e-11
-4.09798e-10
-4.48516e-11
0.00213546
0.00527056
0.000515511
0.000948485
0.00817596
0.0346565
0.0181587
6.24303e-21
8.41089e-33
0
-1.51295e-15
9.90308e-10
)
;

boundaryField
{
    leftWall
    {
        type            zeroGradient;
    }
    rightWall
    {
        type            zeroGradient;
    }
    lowerWall
    {
        type            zeroGradient;
    }
    atmosphere
    {
        type            inletOutlet;
        inletValue      uniform 0;
        value           nonuniform List<scalar> 
46
(
0
0
0
0
0
0
0
0
0
0
0
0
0
0
0
0
0
0
0
0
0
0
0
0
0
0
0
0
0
0
0
0
0
0
0
0.00527056
0.000515511
0.000948485
0.00817596
0.0346565
0.0181587
0
0
0
0
0
)
;
    }
    defaultFaces
    {
        type            empty;
    }
}


// ************************************************************************* //
