/*--------------------------------*- C++ -*----------------------------------*\
| =========                 |                                                 |
| \\      /  F ield         | OpenFOAM: The Open Source CFD Toolbox           |
|  \\    /   O peration     | Version:  2206                                  |
|   \\  /    A nd           | Website:  www.openfoam.com                      |
|    \\/     M anipulation  |                                                 |
\*---------------------------------------------------------------------------*/
FoamFile
{
    version     2.0;
    format      ascii;
    arch        "LSB;label=32;scalar=64";
    class       volScalarField;
    location    "0.6";
    object      p_rgh;
}
// * * * * * * * * * * * * * * * * * * * * * * * * * * * * * * * * * * * * * //

dimensions      [1 -1 -2 0 0 0 0];

internalField   nonuniform List<scalar> 
2268
(
814.719
814.871
815.395
816.163
816.963
817.746
818.564
819.52
820.683
822.072
823.668
825.437
827.333
829.32
831.356
833.382
835.312
837.029
838.403
839.275
839.862
840.592
841.723
814.395
814.499
815.041
815.82
816.641
817.446
818.288
819.27
820.463
821.878
823.489
825.265
827.164
829.148
831.184
833.228
835.21
836.996
838.384
839.163
839.511
839.995
841.677
813.667
813.784
814.308
815.102
815.968
816.821
817.714
818.756
820.018
821.508
823.199
825.04
826.996
829.021
831.071
833.098
835.042
836.827
838.382
839.64
840.779
841.921
842.956
812.487
812.607
813.14
813.955
814.904
815.834
816.813
817.96
819.339
820.95
822.753
824.698
826.741
828.84
830.954
833.041
835.047
836.921
838.634
840.198
841.688
843.103
844.42
810.77
810.915
811.468
812.379
813.477
814.516
815.586
816.875
818.424
820.209
822.176
824.266
826.433
828.64
830.856
833.042
835.161
837.169
839.038
840.765
842.41
843.968
845.388
808.35
808.477
809.053
810.202
811.637
812.923
814.076
815.533
817.3
819.311
821.485
823.758
826.081
828.428
830.769
833.078
835.321
837.463
839.473
841.331
843.045
844.606
845.861
804.991
804.765
805.238
806.526
808.575
810.612
812.134
813.953
816.015
818.3
820.714
823.192
825.696
828.201
830.684
833.125
835.494
837.755
839.864
841.764
843.362
844.501
844.905
800.749
799.669
799.549
800.399
803.36
806.824
809.729
812.2
814.679
817.263
819.925
822.616
825.31
827.982
830.615
833.191
835.678
838.036
840.205
842.141
843.644
844.859
842.065
318.345
291.573
241.627
217.109
233.943
262.548
310.885
399.577
505.992
549.905
578.969
643.679
694.973
726.102
732.766
639.687
514.854
632.228
899.043
318.694
278.191
211.49
195.729
216.435
245.128
289.799
387.724
507.43
540.78
559.535
637.923
707.062
731.405
742.589
635.814
480.677
581.889
881.698
336.742
264.646
196.369
192.792
215.546
243.591
316.586
433.58
485.147
484.845
500.082
583.492
690.702
760.383
748.714
627.916
437.286
502.45
852.625
343.097
234.491
196.053
192.311
214.381
288.856
403.877
424.824
427.157
413.419
434.362
514.29
636.415
751.51
754.376
611.23
358.654
386.65
809.029
341.302
226.755
199.247
194.574
272.021
420.864
416.331
391.438
351.104
277.847
316.309
429.018
565.834
697.83
745.822
552.376
315.009
314.149
761.28
304.056
233.841
204.573
260.527
454.802
445.98
403.071
316.915
149.951
41.0576
63.7019
252.146
482.508
631.416
697.869
500.694
298.599
285.711
740.445
313.09
270.634
320.24
503.718
488.521
451.612
356.415
95.8163
3.9862
2.93613
3.12242
18.4411
332.795
563.781
655.144
559.2
310.513
313.914
792.044
479.986
510.285
585.285
540.197
504.867
401.816
105.839
3.36059
2.7113
2.67934
2.86616
3.45778
63.0445
482.333
624.266
605.418
398.271
463.609
874.693
793.967
789.905
788.086
789.049
795.607
801.602
806.235
809.714
812.8
815.755
818.721
821.707
824.682
827.617
830.487
833.26
835.876
838.234
840.107
841.156
840.178
836.004
820.865
791.175
786.524
785.383
782.429
782.822
792.561
802.658
806.989
810.27
813.428
816.669
820.039
823.441
826.79
830.035
833.128
835.999
838.536
840.58
841.874
842.065
840.447
836.963
538.056
506.208
470.915
400.679
382.988
428.099
488.701
520.297
549.04
575.09
597.32
618.357
638.796
658.281
676.541
693.403
708.69
722.198
733.737
742.6
749.369
748.087
743.508
1.86967
1.78716
1.57474
20.4986
43.0702
47.1594
40.071
35.3976
29.834
23.4699
22.6641
27.1292
34.9591
44.5291
54.9545
65.5787
75.8501
85.2939
93.6378
100.548
104.405
101.013
89.515
1.61485
1.57683
1.5103
1.51547
1.59498
1.56966
1.5904
1.59065
1.60196
1.61402
1.62395
1.63008
1.63386
1.63789
1.64271
1.64837
1.65481
1.66182
1.66894
1.67585
1.6834
1.6938
1.70899
1.60668
1.57375
1.54775
1.53185
1.56089
1.56755
1.58076
1.59379
1.60633
1.61818
1.6242
1.62708
1.62986
1.63371
1.63881
1.64508
1.65232
1.66031
1.66883
1.67768
1.68665
1.69601
1.70691
1.60149
1.60148
1.59037
1.58406
1.58406
1.58364
1.5855
1.58974
1.59514
1.60077
1.60601
1.611
1.61615
1.62176
1.62805
1.6351
1.64289
1.65129
1.66021
1.66948
1.67875
1.688
1.70235
1.58182
1.58143
1.57799
1.57301
1.57053
1.57062
1.57258
1.57584
1.57997
1.58461
1.58951
1.59467
1.60021
1.60629
1.61299
1.62036
1.62836
1.6369
1.64592
1.65518
1.67519
1.69237
1.72217
1.55668
1.55598
1.55483
1.55365
1.55341
1.55431
1.55618
1.55887
1.56228
1.56629
1.57082
1.57583
1.58135
1.58742
1.59409
1.60136
1.60919
1.61754
1.62685
1.66077
1.69342
1.70051
1.70717
1.53356
1.53356
1.53304
1.53279
1.53314
1.5342
1.536
1.53849
1.54162
1.54536
1.54965
1.55447
1.55982
1.5657
1.57214
1.57913
1.58664
1.59464
1.61101
1.66617
1.67494
1.68344
1.6867
1.50812
1.50827
1.50814
1.50842
1.50926
1.51067
1.51264
1.51518
1.51828
1.52193
1.5261
1.5308
1.536
1.54171
1.54793
1.55466
1.56187
1.56957
1.58177
1.62549
1.65463
1.66505
1.63416
1.48097
1.48119
1.48131
1.4819
1.48299
1.48458
1.48667
1.48928
1.4924
1.49604
1.50018
1.50483
1.50998
1.51563
1.52177
1.52841
1.53554
1.54319
1.55129
1.56003
1.6048
1.61892
1.60718
1.45163
1.45188
1.45219
1.45297
1.45424
1.45597
1.45818
1.46087
1.46404
1.46771
1.47188
1.47655
1.48172
1.48739
1.49357
1.50025
1.50746
1.51532
1.52355
1.53246
1.54219
1.5531
1.56598
1.42004
1.42034
1.42079
1.42172
1.42311
1.42494
1.42723
1.42999
1.43322
1.43693
1.44113
1.44582
1.45102
1.45673
1.46296
1.46973
1.47704
1.48492
1.49339
1.5025
1.51233
1.52298
1.53449
1.38621
1.38655
1.38713
1.38815
1.38962
1.39153
1.39388
1.39668
1.39994
1.40367
1.40788
1.41259
1.41779
1.42352
1.42977
1.43656
1.44391
1.45184
1.46036
1.46952
1.47934
1.48986
1.50112
1.35013
1.35051
1.35117
1.35226
1.35379
1.35573
1.35811
1.36093
1.3642
1.36793
1.37213
1.37682
1.382
1.38769
1.39391
1.40067
1.408
1.4159
1.42439
1.4335
1.44323
1.45362
1.46468
1.31179
1.31221
1.31293
1.31406
1.31561
1.31757
1.31995
1.32275
1.326
1.3297
1.33386
1.3385
1.34363
1.34926
1.3554
1.36209
1.36933
1.37714
1.38553
1.39452
1.40411
1.41432
1.42518
1.27121
1.27166
1.27241
1.27356
1.27511
1.27705
1.27941
1.28218
1.28538
1.28901
1.2931
1.29765
1.30269
1.30821
1.31425
1.32081
1.32791
1.33557
1.3438
1.35261
1.362
1.372
1.38261
1.22841
1.22886
1.22963
1.23077
1.2323
1.23421
1.23651
1.23922
1.24233
1.24587
1.24985
1.25428
1.25919
1.26457
1.27045
1.27685
1.28376
1.29121
1.29922
1.30778
1.31691
1.32663
1.33694
1.18339
1.18385
1.18461
1.18573
1.18721
1.18906
1.19129
1.1939
1.1969
1.20031
1.20415
1.20843
1.21316
1.21836
1.22404
1.23021
1.23688
1.24407
1.25178
1.26003
1.26883
1.2782
1.28814
1.13619
1.13665
1.13738
1.13846
1.13988
1.14165
1.14377
1.14626
1.14913
1.15238
1.15604
1.16012
1.16463
1.1696
1.17502
1.18092
1.18729
1.19415
1.20151
1.20937
1.21776
1.22669
1.23617
1.08687
1.08731
1.088
1.08902
1.09036
1.09202
1.09402
1.09637
1.09906
1.10213
1.10557
1.10941
1.11367
1.11835
1.12347
1.12903
1.13503
1.1415
1.14842
1.15582
1.16371
1.17211
1.18103
1.03548
1.03589
1.03653
1.03747
1.03871
1.04026
1.04212
1.04429
1.04679
1.04962
1.05281
1.05638
1.06032
1.06467
1.06942
1.07459
1.08016
1.08616
1.09257
1.09942
1.10672
1.11449
1.12275
0.982082
0.982454
0.983034
0.983894
0.985031
0.986442
0.988131
0.990106
0.992377
0.994955
0.997855
1.00109
1.00469
1.00864
1.01298
1.01769
1.02277
1.02822
1.03405
1.04026
1.04687
1.05391
1.06138
0.926783
0.927113
0.927631
0.9284
0.929416
0.930672
0.932175
0.933929
0.935943
0.93823
0.940804
0.94368
0.946874
0.950397
0.954255
0.958448
0.962972
0.967817
0.97298
0.978466
0.984288
0.99048
0.997053
0.869717
0.870003
0.870452
0.871119
0.871997
0.873081
0.874376
0.875886
0.877619
0.879586
0.881801
0.884279
0.887034
0.890077
0.89341
0.897033
0.900933
0.905099
0.90952
0.914196
0.919138
0.92438
0.929935
0.811023
0.811262
0.811634
0.812187
0.812913
0.813811
0.814882
0.81613
0.81756
0.819184
0.821013
0.823061
0.825341
0.827862
0.830625
0.833626
0.836848
0.840272
0.843882
0.847671
0.851646
0.855843
0.860272
0.750832
0.751026
0.751313
0.751744
0.752311
0.753013
0.753849
0.754822
0.755935
0.757197
0.758618
0.76021
0.761985
0.763951
0.766106
0.768441
0.770936
0.773567
0.776309
0.779149
0.782087
0.785159
0.788369
0.689291
0.689445
0.689642
0.689948
0.690351
0.690854
0.691451
0.692142
0.692929
0.693818
0.694816
0.695934
0.697183
0.698566
0.700082
0.701719
0.703452
0.705251
0.707085
0.708932
0.710785
0.712673
0.714598
0.626575
0.626694
0.626798
0.62698
0.627222
0.627526
0.627885
0.628293
0.628752
0.629264
0.629833
0.630468
0.631176
0.631962
0.632822
0.63374
0.63469
0.635636
0.636541
0.637375
0.638121
0.638798
0.6394
0.562886
0.562978
0.562987
0.563052
0.563139
0.563246
0.563372
0.563502
0.563637
0.563774
0.563916
0.564069
0.564236
0.564422
0.564621
0.564817
0.564981
0.565075
0.565055
0.564883
0.56453
0.564003
0.563282
0.49843
0.498506
0.498426
0.498379
0.498323
0.498241
0.49814
0.498001
0.49782
0.497593
0.497318
0.496998
0.496636
0.496233
0.495783
0.49527
0.494667
0.493932
0.493018
0.491876
0.490466
0.488775
0.486771
0.433424
0.433495
0.433334
0.433183
0.432998
0.432736
0.43242
0.432023
0.43154
0.430964
0.43029
0.429518
0.428648
0.42768
0.426609
0.425422
0.42409
0.422574
0.420821
0.418774
0.41638
0.413603
0.410394
0.368106
0.368177
0.367951
0.367694
0.367391
0.366963
0.366442
0.365805
0.365039
0.364136
0.363089
0.361893
0.360548
0.359054
0.357407
0.355596
0.353595
0.351366
0.348852
0.345989
0.342708
0.338954
0.334662
0.302691
0.302733
0.302458
0.302091
0.301672
0.301087
0.300374
0.299512
0.298484
0.29728
0.29589
0.294307
0.29253
0.290559
0.288392
0.286019
0.283421
0.280559
0.277375
0.273797
0.269746
0.265147
0.259923
0.237389
0.237332
0.237023
0.236538
0.235997
0.235261
0.234366
0.233294
0.232025
0.230547
0.228849
0.226921
0.224762
0.222371
0.219748
0.216889
0.213775
0.21037
0.206616
0.202436
0.197743
0.192451
0.186477
0.172665
0.172449
0.172116
0.171509
0.170843
0.169962
0.168898
0.167638
0.166159
0.164446
0.162487
0.160271
0.157795
0.155059
0.152066
0.148812
0.145284
0.141445
0.13724
0.132592
0.127411
0.121607
0.115099
0.108796
0.108358
0.108009
0.107276
0.106487
0.105479
0.104272
0.102853
0.1012
0.0992976
0.0971304
0.0946888
0.0919688
0.0889719
0.0857009
0.0821539
0.0783168
0.074156
0.0696162
0.0646232
0.0590925
0.0529361
0.0460815
0.0448538
0.0440362
0.0436821
0.0428393
0.0419335
0.0408104
0.0394704
0.0379041
0.0360927
0.0340198
0.031672
0.0290406
0.0261218
0.022916
0.0194238
0.0156406
0.0115494
0.00711609
0.00228839
-0.00300117
-0.00882814
-0.0152704
-0.022397
-0.0192917
-0.0205082
-0.0208418
-0.0217625
-0.0227962
-0.0240527
-0.0255379
-0.0272575
-0.029225
-0.0314542
-0.0339578
-0.0367456
-0.0398248
-0.0432006
-0.0468792
-0.0508714
-0.0551968
-0.059887
-0.0649864
-0.0705503
-0.0766417
-0.0833256
-0.0906601
-0.0823332
-0.0836034
-0.0840704
-0.0851307
-0.0863424
-0.0877569
-0.0893837
-0.091233
-0.0933179
-0.0956532
-0.0982535
-0.101133
-0.104307
-0.107788
-0.111592
-0.115736
-0.12024
-0.125129
-0.130438
-0.136205
-0.142476
-0.149297
-0.156703
-0.148621
-0.151252
-0.152114
-0.153401
-0.154794
-0.156354
-0.158105
-0.160066
-0.162254
-0.164686
-0.167382
-0.170358
-0.173634
-0.177231
-0.18117
-0.185474
-0.190166
-0.195266
-0.200798
-0.206782
-0.213241
-0.220198
-0.227684
762.959
805.55
791.378
750.612
818.845
802.41
778.763
741.283
673.991
500.678
371.514
267.876
27.0651
1.89403
1.90074
2.02178
1.76139
1.80915
1.88177
2.06562
1.73979
1.80867
1.90271
2.27576
1.72835
1.77829
1.8859
2.13038
1.73861
1.76474
1.8272
1.89719
1.70798
1.73195
1.80288
1.87217
1.65967
1.71394
1.78014
1.84631
1.6467
1.69626
1.75695
1.82018
1.63465
1.67387
1.73078
1.79266
1.59751
1.64618
1.70131
1.76313
1.56181
1.6125
1.669
1.73123
1.52781
1.57736
1.63369
1.69658
1.49081
1.53944
1.59551
1.65882
1.45078
1.49853
1.55415
1.6176
1.40763
1.45443
1.50934
1.57255
1.36128
1.40693
1.46078
1.52329
1.31163
1.35583
1.40821
1.46946
1.25862
1.30099
1.35138
1.41071
1.20219
1.24228
1.29008
1.34668
1.14236
1.17965
1.22414
1.27709
1.07917
1.11308
1.15349
1.20172
1.01272
1.04265
1.07813
1.12045
0.943202
0.968519
0.998173
1.0333
0.870864
0.890962
0.913887
0.940463
0.796052
0.810369
0.825701
0.842361
0.719191
0.727259
0.734233
0.739697
0.640794
0.642285
0.640319
0.633517
0.561454
0.556225
0.545008
0.525243
0.481796
0.46994
0.449532
0.416657
0.402459
0.384348
0.355259
0.309853
0.324057
0.300337
0.263558
0.207014
0.247018
0.218559
0.175497
0.110019
0.17174
0.139628
0.0920866
0.0207113
0.0991058
0.0646587
0.0147995
-0.0586694
0.0292925
-0.0062797
-0.0564448
-0.128305
-0.0398048
-0.0758973
-0.125279
-0.193344
-0.108453
-0.144736
-0.192926
-0.256579
-0.174524
-0.210461
-0.257028
-0.316248
-0.245597
-0.281152
-0.326189
-0.381756
702.078
664.545
627.496
541.818
370.919
105.815
2.64245
2.41577
2.52542
2.65195
2.7955
2.9692
3.70865
138.603
551.148
628.396
620.837
736.197
1052.11
684.976
584.954
389.938
78.9332
2.28588
2.17126
2.32797
2.36692
2.45934
2.56519
2.70486
2.91271
3.16736
3.92967
152.566
588.362
779.524
990.07
1253.67
141.4
2.482
2.05207
2.16202
2.18347
2.17575
2.25405
2.33152
2.40031
2.47834
2.62417
2.86734
3.19483
3.65975
4.92896
150.166
711.085
1093.36
1343.85
2.10889
2.22131
2.16642
2.20477
2.22981
2.1828
2.22111
2.29788
2.35631
2.41245
2.55722
2.81319
3.21598
3.72799
4.37681
6.09484
414.092
1075.48
1344.27
2.24788
2.36064
2.35507
2.33837
2.31204
2.16565
2.21786
2.28131
2.32689
2.37034
2.49807
2.74389
3.15183
3.76608
4.51438
5.52133
264.655
1025.08
1323.76
2.35155
2.40661
2.27641
2.17083
2.12944
2.16303
2.21942
2.27311
2.30546
2.33197
2.4361
2.62795
2.93472
3.6513
4.86141
6.23104
240.037
1077.79
1338.96
2.20985
2.12289
2.08307
2.11101
2.13976
2.17611
2.22209
2.26806
2.29344
2.30728
2.37572
2.46687
2.44389
2.78844
5.10557
11.5726
325.179
1218.28
1396.13
1.95767
2.01256
2.06217
2.1004
2.13974
2.18031
2.22442
2.26686
2.28904
2.29194
2.30102
2.20546
1.62836
1.0689
113.715
311.568
548.482
1413.26
1480.98
1.93206
1.98761
2.04048
2.08769
2.13396
2.17986
2.22539
2.26685
2.28956
2.2832
2.23245
1.98372
1.0184
-0.33676
289.912
981.263
975.178
1544.99
1578.82
1.9067
1.9635
2.01936
2.07274
2.12505
2.17601
2.22471
2.26746
2.29371
2.28603
2.19561
1.88159
1.1145
0.0708183
99.5795
1092.59
1585.02
1662.17
1682.36
1.88114
1.93921
1.99771
2.05575
2.11326
2.1692
2.22207
2.26782
2.29922
2.29957
2.20557
1.89036
1.61774
3.08536
1.34481
302.099
1727.22
1772.85
1789.02
1.85436
1.9138
1.97481
2.0367
2.09882
2.15958
2.21717
2.26743
2.30404
2.31534
2.24373
1.9639
1.99406
3.80416
1.57518
99.7507
1643.51
1885.68
1897.26
1.82574
1.88665
1.95007
2.01538
2.08166
2.14707
2.20925
2.26503
2.307
2.32685
2.28598
2.07218
2.126
4.024
1.75987
42.0226
1280.27
2000.41
2007.44
1.79483
1.85721
1.92293
1.99136
2.06142
2.13122
2.19817
2.259
2.3076
2.33398
2.31968
2.18873
2.30928
2.98752
2.01584
16.3437
1116.07
2111.41
2119.76
1.76115
1.82496
1.89283
1.96413
2.03774
2.1117
2.18334
2.2493
2.30433
2.33816
2.34369
2.28487
2.31293
2.14361
2.25157
2.49394
694.239
2214.44
2232.91
1.72424
1.78934
1.85918
1.93316
2.01013
2.08818
2.16456
2.23588
2.29751
2.34095
2.3625
2.35361
2.30642
2.3237
2.44698
2.62812
249.587
2305.08
2347.36
1.68363
1.74981
1.82139
1.89783
1.97805
2.06019
2.14158
2.21884
2.28778
2.34191
2.37955
2.4013
2.4099
2.45425
2.56659
2.7358
46.0521
1643.57
2462.36
1.63884
1.70577
1.77879
1.85745
1.94077
2.02711
2.11387
2.19785
2.27531
2.34088
2.39435
2.43738
2.48031
2.54577
2.63907
2.76393
2.78211
1016.12
2578.27
1.58939
1.65664
1.73067
1.81119
1.89738
1.98798
2.0805
2.17199
2.25913
2.33729
2.40641
2.46838
2.5339
2.61346
2.69693
2.7809
2.72647
985.142
2694.45
1.53477
1.60177
1.67624
1.75812
1.84672
1.94156
2.04008
2.13976
2.23765
2.32981
2.41546
2.49631
2.58066
2.67058
2.75276
2.80889
2.80474
1030.62
2810.84
1.47449
1.54047
1.61462
1.6972
1.78824
1.8863
1.99072
2.09909
2.20874
2.31631
2.42007
2.52059
2.62308
2.72334
2.84119
2.83891
2.88995
1069.12
2928.24
1.40802
1.47204
1.5448
1.62695
1.71882
1.81998
1.92999
2.04725
2.16945
2.29377
2.41757
2.53943
2.66196
2.77488
3.03604
2.87602
3.02933
1103.94
3046.69
1.33489
1.39574
1.46574
1.54596
1.63726
1.74007
1.85471
1.98052
2.11575
2.25812
2.40426
2.55019
2.69597
2.82618
3.10454
2.93597
3.11711
1111.86
3165.81
1.25467
1.31086
1.37634
1.45263
1.54122
1.6435
1.76075
1.894
2.04205
2.20369
2.37498
2.54927
2.72312
2.87353
3.14141
3.46099
3.24815
1100.47
3285.1
1.16703
1.21679
1.27552
1.34521
1.42797
1.52633
1.6426
1.78108
1.9406
2.12249
2.32239
2.53151
2.74192
2.9276
3.12344
3.58572
3.41219
1048.33
3404.3
1.0718
1.11301
1.1622
1.22182
1.29447
1.38412
1.49302
1.63309
1.80053
2.00271
2.23545
2.48864
2.74932
2.98457
3.19889
3.73199
3.62093
950.017
3520.64
0.968991
0.999236
1.0355
1.08059
1.13737
1.21236
1.31454
1.4387
1.60486
1.82456
2.09365
2.40306
2.73552
3.03929
3.32605
3.69351
3.86175
851.128
3573.48
0.85891
0.875487
0.894841
0.919854
0.952854
1.00158
1.07692
1.17638
1.32571
1.55547
1.86499
2.25006
2.68511
3.08257
3.47155
3.55321
4.11394
785.049
3629.55
0.742254
0.742297
0.740287
0.738421
0.737657
0.744607
0.774784
0.819149
0.918015
1.13951
1.48204
1.97205
2.56547
3.09714
3.61636
3.76863
4.3784
712.038
3736.8
0.620235
0.600937
0.572821
0.535941
0.489759
0.433419
0.383652
0.323029
0.312003
0.477617
0.826485
1.45948
2.30681
3.04791
3.71738
4.04273
4.56732
745.924
3666.41
0.494699
0.453673
0.394712
0.314177
0.210383
0.0574975
-0.123642
-0.342025
-0.230107
-0.447116
-0.0867519
0.685033
1.83937
2.88275
3.69418
4.19888
9.38994
920.049
1056.15
0.368194
0.303912
0.21022
0.0790713
-0.0959345
-0.391977
-0.727636
-1.12408
-0.894463
8.17212
4.18923
-0.250605
1.0991
2.55141
3.5042
4.07166
90.8256
909.361
42.6322
0.243911
0.156148
0.0261525
-0.159409
-0.419917
-0.887847
-1.31253
0.0189793
7.58863
15.7326
12.5984
-1.13186
0.0908216
2.03481
3.19207
4.03788
122.081
538.842
42.8942
0.12535
0.0156249
-0.149147
-0.391451
-0.747633
-1.3736
-1.82033
31.2186
26.6945
16.328
15.6845
0.187485
-1.01488
1.3496
2.80491
4.07434
184.891
776.609
44.4685
0.0158243
-0.112006
-0.30661
-0.60564
-1.06016
-1.85452
1.85635
46.7501
20.9543
-4.29398
9.45199
6.84402
-2.01259
0.485567
2.13676
33.1704
713.312
799.251
43.0763
-0.0811987
-0.220203
-0.434754
-0.777996
-1.31821
-2.35074
17.5124
46.0622
3.39235
-9.51875
-0.43437
4.51727
-2.95448
-0.404372
1.43302
154.62
722.082
423.186
10.7263
-0.161796
-0.301639
-0.519346
-0.87405
-1.46433
-1.473
49.9645
43.8716
-10.7781
-10.003
-6.03093
1.77347
-3.99159
-0.941043
1.5168
190.326
719.254
-1.40096
-0.665403
-0.225723
-0.354086
-0.551419
-0.870508
-1.46936
14.068
107.528
42.3004
-11.2071
-10.1171
-9.79601
-7.62743
-5.26593
-1.30488
10.0723
638.704
654.045
17.743
-0.577117
-0.28042
-0.387389
-0.539694
-0.766174
-1.2798
27.233
110.617
72.5278
-10.1967
-9.63845
-10.3001
-11.0302
-7.64207
-1.42738
340.724
650.501
166.905
-0.58176
-0.496253
-0.332407
-0.415691
-0.511529
-0.608007
-0.847571
27.3254
114.384
92.0764
-8.94343
-8.49828
-10.3119
-14.1518
-13.6625
253.755
513.566
514.729
16.1345
-0.427946
-0.388589
-0.38238
-0.446961
-0.500153
-0.504728
-0.417585
9.17131
105.079
108.805
11.768
-5.93444
-8.98381
-21.2145
152.692
364.706
393.037
4.80532
-0.0718168
-0.246959
-0.304117
-0.441186
-0.495546
-0.533419
-0.524491
-0.387978
0.00488678
-0.367009
13.2455
19.4254
-2.31557
-3.9956
13.1745
95.7144
56.119
-4.4727
-0.978458
-0.426953
-0.237269
-0.255469
)
;

boundaryField
{
    leftWall
    {
        type            fixedFluxPressure;
        gradient        uniform 0;
        value           nonuniform List<scalar> 
50
(
814.719
814.395
813.667
812.487
810.77
808.35
804.991
800.749
793.967
791.175
538.056
1.86967
1.61485
1.60668
1.60149
1.58182
1.55668
1.53356
1.50812
1.48097
1.45163
1.42004
1.38621
1.35013
1.31179
1.27121
1.22841
1.18339
1.13619
1.08687
1.03548
0.982082
0.926783
0.869717
0.811023
0.750832
0.689291
0.626575
0.562886
0.49843
0.433424
0.368106
0.302691
0.237389
0.172665
0.108796
0.0448538
-0.0192917
-0.0823332
-0.148621
)
;
    }
    rightWall
    {
        type            fixedFluxPressure;
        gradient        uniform 0;
        value           nonuniform List<scalar> 
50
(
899.043
881.698
852.625
809.029
761.28
740.445
792.044
874.693
1052.11
1253.67
1343.85
1344.27
1323.76
1338.96
1396.13
1480.98
1578.82
1682.36
1789.02
1897.26
2007.44
2119.76
2232.91
2347.36
2462.36
2578.27
2694.45
2810.84
2928.24
3046.69
3165.81
3285.1
3404.3
3520.64
3573.48
3629.55
3736.8
3666.41
1056.15
42.6322
42.8942
44.4685
43.0763
10.7263
-0.665403
-0.577117
-0.496253
-0.388589
-0.304117
-0.255469
)
;
    }
    lowerWall
    {
        type            fixedFluxPressure;
        gradient        uniform 0;
        value           nonuniform List<scalar> 
62
(
814.719
814.871
815.395
816.163
816.963
817.746
818.564
819.52
820.683
822.072
823.668
825.437
827.333
829.32
831.356
833.382
835.312
837.029
838.403
839.275
839.862
840.592
841.723
841.723
841.677
842.956
844.42
845.388
845.861
844.905
842.065
762.959
805.55
791.378
750.612
318.345
318.694
336.742
343.097
341.302
304.056
313.09
479.986
318.345
291.573
241.627
217.109
233.943
262.548
310.885
399.577
505.992
549.905
578.969
643.679
694.973
726.102
732.766
639.687
514.854
632.228
899.043
)
;
    }
    atmosphere
    {
        type            totalPressure;
        rho             rho;
        psi             none;
        gamma           1;
        p0              uniform 0;
        value           nonuniform List<scalar> 
46
(
-0.181791
-0.190937
-0.190443
-0.191689
-0.193085
-0.194664
-0.196443
-0.198437
-0.200664
-0.203143
-0.205892
-0.208929
-0.212272
-0.215938
-0.219951
-0.224335
-0.22912
-0.234332
-0.239987
-0.246092
-0.252648
-0.259667
-0.267186
-0.285179
-0.320476
-0.364659
-0.41856
-0.47577
-0.528321
-0.567356
-0.562832
-0.459679
-0.210146
-0.133404
-0.0543103
0
0
0
0
0
0
-0.241131
-0.138802
-0.129907
-0.142209
-0.201813
)
;
    }
    defaultFaces
    {
        type            empty;
    }
}


// ************************************************************************* //
