/*--------------------------------*- C++ -*----------------------------------*\
| =========                 |                                                 |
| \\      /  F ield         | OpenFOAM: The Open Source CFD Toolbox           |
|  \\    /   O peration     | Version:  2206                                  |
|   \\  /    A nd           | Website:  www.openfoam.com                      |
|    \\/     M anipulation  |                                                 |
\*---------------------------------------------------------------------------*/
FoamFile
{
    version     2.0;
    format      ascii;
    arch        "LSB;label=32;scalar=64";
    class       volVectorField;
    location    "0.6";
    object      U;
}
// * * * * * * * * * * * * * * * * * * * * * * * * * * * * * * * * * * * * * //

dimensions      [0 1 -1 0 0 0 0];

internalField   nonuniform List<vector> 
2268
(
(-0.00928283 0.00533554 0)
(-0.0138127 -8.42156e-06 0)
(-0.00775018 -0.00407291 0)
(0.00372306 -0.00598457 0)
(0.0176903 -0.00627957 0)
(0.0308956 -0.00546639 0)
(0.0418254 -0.00410597 0)
(0.0496206 -0.00265546 0)
(0.0543274 -0.00140311 0)
(0.0565458 -0.000452317 0)
(0.0570418 0.000280686 0)
(0.0562477 0.000919583 0)
(0.0543694 0.00167668 0)
(0.0512195 0.00277187 0)
(0.046266 0.00435358 0)
(0.0387826 0.00641932 0)
(0.027981 0.0087116 0)
(0.0133922 0.0104835 0)
(-0.00425561 0.0104147 0)
(-0.0233824 0.00544388 0)
(-0.0368843 -0.00582107 0)
(-0.0333306 -0.0176252 0)
(-0.0130332 -0.020904 0)
(-0.0107079 0.0163249 0)
(-0.0144661 -0.000367127 0)
(-0.00909401 -0.012444 0)
(0.00238795 -0.0184227 0)
(0.016687 -0.0195649 0)
(0.0305247 -0.0172729 0)
(0.0421828 -0.0132048 0)
(0.050663 -0.0087804 0)
(0.0559435 -0.00493029 0)
(0.0586691 -0.00203608 0)
(0.0596457 -1.7765e-05 0)
(0.0597125 0.00143846 0)
(0.0593722 0.00279127 0)
(0.0589239 0.00449255 0)
(0.058444 0.00693434 0)
(0.0576516 0.0103859 0)
(0.0557248 0.0148743 0)
(0.0512673 0.0198556 0)
(0.0429318 0.0236901 0)
(0.0301506 0.0228898 0)
(0.0173726 0.01381 0)
(0.00272333 -0.00355912 0)
(-0.00235228 -0.0293574 0)
(-0.0107287 0.028176 0)
(-0.0160482 0.000104048 0)
(-0.0115147 -0.0201618 0)
(-0.000290299 -0.0307257 0)
(0.0141851 -0.0331638 0)
(0.0286211 -0.0296213 0)
(0.0410663 -0.0228713 0)
(0.0503286 -0.0153489 0)
(0.0562265 -0.0087359 0)
(0.0593364 -0.00379938 0)
(0.0605253 -0.000543359 0)
(0.0606031 0.00152221 0)
(0.0601361 0.00303366 0)
(0.0594409 0.00460104 0)
(0.0587257 0.00677564 0)
(0.0582443 0.0100652 0)
(0.0583998 0.0148479 0)
(0.0592798 0.0210395 0)
(0.0599108 0.0273402 0)
(0.0573452 0.0304025 0)
(0.0488274 0.0253079 0)
(0.0329444 0.00819037 0)
(0.0143446 -0.0152738 0)
(-0.0112274 0.0410522 0)
(-0.0182486 0.00184046 0)
(-0.0146625 -0.027469 0)
(-0.00445728 -0.0432648 0)
(0.0101711 -0.0475781 0)
(0.0255332 -0.0429819 0)
(0.0388812 -0.033557 0)
(0.0490321 -0.0228235 0)
(0.0557775 -0.0132389 0)
(0.0595952 -0.00602421 0)
(0.0613372 -0.00128261 0)
(0.0618655 0.00161381 0)
(0.0618237 0.00355371 0)
(0.0615844 0.00536379 0)
(0.0612894 0.00764899 0)
(0.0609405 0.010779 0)
(0.0605827 0.0149478 0)
(0.0604607 0.0202279 0)
(0.0608322 0.0264706 0)
(0.0607244 0.0324201 0)
(0.056733 0.0349147 0)
(0.0426302 0.0288492 0)
(0.0183095 0.0108732 0)
(-0.0120974 0.0554466 0)
(-0.0211516 0.0050765 0)
(-0.0205652 -0.0331246 0)
(-0.0141624 -0.0544303 0)
(0.00102007 -0.0622855 0)
(0.019324 -0.0572152 0)
(0.0347137 -0.0451288 0)
(0.0460189 -0.031185 0)
(0.0537052 -0.0186258 0)
(0.0584845 -0.00903642 0)
(0.0611472 -0.00267117 0)
(0.0625111 0.00112632 0)
(0.0632475 0.00342636 0)
(0.0637812 0.0053195 0)
(0.0643012 0.00762218 0)
(0.0647799 0.0108486 0)
(0.0650005 0.0152063 0)
(0.0646146 0.0206432 0)
(0.063346 0.0270753 0)
(0.0609653 0.0345835 0)
(0.0567518 0.0426728 0)
(0.0449733 0.0468507 0)
(0.0217795 0.0385137 0)
(-0.0132481 0.0719807 0)
(-0.0255877 0.0117843 0)
(-0.0327984 -0.0328462 0)
(-0.0324193 -0.0617246 0)
(-0.0169754 -0.0779532 0)
(0.00628715 -0.0737138 0)
(0.0262387 -0.0581261 0)
(0.0401023 -0.0404974 0)
(0.0492137 -0.0249476 0)
(0.0552379 -0.0131251 0)
(0.0592312 -0.00518775 0)
(0.0619095 -0.000414719 0)
(0.0638844 0.00237071 0)
(0.065591 0.00441523 0)
(0.0672486 0.00674636 0)
(0.0688905 0.0101096 0)
(0.0703133 0.0149359 0)
(0.0710298 0.0213957 0)
(0.0702198 0.0294575 0)
(0.0667753 0.0392497 0)
(0.0600344 0.0518233 0)
(0.0473504 0.0670192 0)
(0.0221233 0.0744982 0)
(-0.0140015 0.0904766 0)
(-0.0312284 0.0241531 0)
(-0.0475851 -0.0252076 0)
(-0.0510246 -0.0683415 0)
(-0.0375038 -0.0991621 0)
(-0.0128419 -0.097757 0)
(0.0118176 -0.0762636 0)
(0.0297724 -0.0526189 0)
(0.0415519 -0.0329777 0)
(0.0493646 -0.0186242 0)
(0.0550584 -0.00911787 0)
(0.0595353 -0.00340914 0)
(0.0632967 -0.000158051 0)
(0.0667012 0.00200435 0)
(0.0699993 0.00433812 0)
(0.0732803 0.00776844 0)
(0.0764108 0.0129893 0)
(0.0790134 0.0204917 0)
(0.080366 0.0306646 0)
(0.0789878 0.04349 0)
(0.07363 0.0599048 0)
(0.0609899 0.0794831 0)
(0.0363463 0.101224 0)
(-0.0134838 0.110761 0)
(-0.0313821 0.0449389 0)
(-0.0503992 -0.0150645 0)
(-0.0520556 -0.0767553 0)
(-0.0430449 -0.122913 0)
(-0.0251159 -0.127008 0)
(-0.00235728 -0.100733 0)
(0.0176662 -0.0690399 0)
(0.032174 -0.0436229 0)
(0.0419747 -0.0259937 0)
(0.0492993 -0.014734 0)
(0.0555262 -0.00803335 0)
(0.0612312 -0.00420431 0)
(0.066732 -0.00171581 0)
(0.0722079 0.000768089 0)
(0.0777212 0.0042876 0)
(0.0832249 0.00977948 0)
(0.088514 0.0180954 0)
(0.0927993 0.0305127 0)
(0.0951531 0.0482271 0)
(0.090425 0.0747194 0)
(0.0831834 0.113829 0)
(0.028323 0.179649 0)
(0.375195 -0.126961 0)
(0.00791739 0.0472829 0)
(-0.830498 0.0444755 0)
(-1.10677 -0.021824 0)
(-0.98778 -0.0272627 0)
(-0.83219 -0.027833 0)
(-0.613465 -0.0316891 0)
(-0.279047 -0.0518989 0)
(0.189161 -0.069007 0)
(0.457514 -0.0211718 0)
(0.541856 0.045124 0)
(0.332814 0.0858046 0)
(-0.129566 0.0305417 0)
(-0.238505 -0.0520245 0)
(-0.103876 -0.0268626 0)
(-0.345999 0.0485048 0)
(-0.736641 0.0428812 0)
(-0.721639 -0.0402703 0)
(-0.270503 -0.103674 0)
(-0.0683793 -0.0380947 0)
(-0.496022 0.278656 0)
(-1.38315 0.248645 0)
(-1.17106 0.0673509 0)
(-0.879126 -0.105707 0)
(-0.625088 -0.113546 0)
(-0.0481656 -0.145892 0)
(0.541583 -0.235195 0)
(0.83358 -0.198202 0)
(0.979758 -0.0938132 0)
(1.01362 0.028921 0)
(0.893401 0.149462 0)
(0.476164 0.175099 0)
(-0.0259479 0.0602259 0)
(-0.34294 0.0391494 0)
(-0.595203 0.139786 0)
(-0.823246 0.104809 0)
(-0.63768 -0.0999628 0)
(-0.218615 -0.272578 0)
(-0.280732 0.104322 0)
(-0.682004 0.470113 0)
(-0.884505 0.315652 0)
(0.0917349 -0.0812245 0)
(0.0689118 -0.212296 0)
(0.371702 -0.274984 0)
(0.762751 -0.327184 0)
(0.99035 -0.333228 0)
(1.1113 -0.24352 0)
(1.17697 -0.0902273 0)
(1.17733 0.0631199 0)
(1.12113 0.212607 0)
(0.892229 0.299673 0)
(0.418711 0.237429 0)
(-0.22353 0.140921 0)
(-0.539589 0.194347 0)
(-0.699821 0.11189 0)
(-0.601248 -0.18774 0)
(-0.14015 -0.426409 0)
(-0.256165 0.189119 0)
(-0.342991 0.499705 0)
(0.0749689 0.119385 0)
(0.59169 -0.224117 0)
(0.715927 -0.287069 0)
(0.894896 -0.341851 0)
(1.02499 -0.371635 0)
(1.11949 -0.355999 0)
(1.19797 -0.260544 0)
(1.25039 -0.0951762 0)
(1.24593 0.0919402 0)
(1.19179 0.267463 0)
(1.08025 0.397883 0)
(0.766965 0.405118 0)
(0.145983 0.301242 0)
(-0.339878 0.268483 0)
(-0.536917 0.142896 0)
(-0.519514 -0.252284 0)
(-0.0673029 -0.564259 0)
(-0.207753 0.242203 0)
(0.213163 0.383224 0)
(0.923321 0.0142022 0)
(1.01128 -0.227043 0)
(0.968504 -0.303562 0)
(1.00473 -0.362649 0)
(1.08018 -0.395094 0)
(1.17175 -0.384858 0)
(1.25463 -0.304137 0)
(1.30671 -0.153384 0)
(1.30497 0.0332501 0)
(1.23599 0.2568 0)
(1.146 0.448927 0)
(0.972904 0.536988 0)
(0.526084 0.47553 0)
(-0.0182049 0.381064 0)
(-0.312313 0.18315 0)
(-0.370734 -0.283298 0)
(0.00668668 -0.671893 0)
(-0.14037 0.193831 0)
(0.562854 0.172167 0)
(0.996507 -0.102556 0)
(0.930591 -0.224478 0)
(0.948529 -0.319358 0)
(1.02362 -0.388573 0)
(1.12294 -0.427156 0)
(1.20575 -0.419685 0)
(1.25055 -0.335557 0)
(1.26472 -0.131367 0)
(1.27605 0.0936927 0)
(1.2421 0.272635 0)
(1.16598 0.469671 0)
(1.06761 0.615728 0)
(0.806209 0.617406 0)
(0.358732 0.515099 0)
(0.0162069 0.261755 0)
(-0.123006 -0.268013 0)
(0.0883986 -0.723538 0)
(-0.095857 0.142212 0)
(0.480637 0.0111668 0)
(0.71987 -0.131923 0)
(0.861176 -0.25824 0)
(0.966005 -0.353659 0)
(1.06416 -0.421471 0)
(1.14521 -0.456616 0)
(1.17671 -0.435283 0)
(1.13949 -0.324651 0)
(1.06127 -0.12479 0)
(1.0511 0.0899525 0)
(1.09826 0.295301 0)
(1.13184 0.48116 0)
(1.09664 0.651058 0)
(0.973799 0.707021 0)
(0.681044 0.624731 0)
(0.37436 0.35716 0)
(0.207519 -0.241443 0)
(0.172692 -0.696286 0)
(0.216121 -0.029777 0)
(0.547515 -0.101037 0)
(0.772096 -0.19978 0)
(0.909376 -0.299657 0)
(1.00046 -0.382064 0)
(1.07807 -0.446608 0)
(1.11655 -0.467599 0)
(1.08544 -0.416146 0)
(0.986117 -0.241607 0)
(0.924102 -0.0385556 0)
(0.829218 0.173323 0)
(0.875349 0.328416 0)
(0.993909 0.466298 0)
(1.06956 0.65281 0)
(1.05355 0.750035 0)
(0.912852 0.700723 0)
(0.693561 0.442749 0)
(0.478307 -0.136781 0)
(0.243946 -0.607486 0)
(0.000175029 0.133548 0)
(0.000291759 0.0564589 0)
(-0.0133951 -0.00992639 0)
(-0.00154243 -0.0796143 0)
(-0.001554 -0.129971 0)
(-0.00561825 -0.143536 0)
(-0.00170034 -0.125434 0)
(0.0099102 -0.0917224 0)
(0.0224429 -0.0604131 0)
(0.0329622 -0.0385312 0)
(0.0418826 -0.0253631 0)
(0.0502903 -0.0181096 0)
(0.0587081 -0.014254 0)
(0.0672867 -0.0119278 0)
(0.0761047 -0.00976406 0)
(0.0853576 -0.00668372 0)
(0.0952384 -0.00177796 0)
(0.106512 0.00577034 0)
(0.11913 0.0171609 0)
(0.137185 0.0328274 0)
(0.155423 0.0576148 0)
(0.197261 0.0834957 0)
(0.218551 0.160511 0)
(0.0234754 0.0916444 0)
(0.0581129 0.0696989 0)
(0.104308 -0.00817771 0)
(0.120864 -0.0650815 0)
(0.103489 -0.0937622 0)
(0.060705 -0.109281 0)
(0.0294446 -0.117488 0)
(0.0194679 -0.105254 0)
(0.0191149 -0.0798161 0)
(0.0252453 -0.057562 0)
(0.0346707 -0.0437686 0)
(0.0455866 -0.0366243 0)
(0.0573613 -0.033266 0)
(0.0696678 -0.0316408 0)
(0.0823705 -0.0305023 0)
(0.0955942 -0.0291043 0)
(0.109722 -0.0269789 0)
(0.125373 -0.0239231 0)
(0.143271 -0.0196294 0)
(0.164352 -0.0146771 0)
(0.190217 -0.00686387 0)
(0.220671 -0.00584183 0)
(0.265302 0.0158608 0)
(0.0391717 -0.0270045 0)
(0.13178 -0.0785618 0)
(0.158102 -0.113434 0)
(0.155818 -0.0958683 0)
(0.130106 -0.0536676 0)
(0.0896871 -0.0324175 0)
(0.0684602 -0.0559863 0)
(0.0533935 -0.0803804 0)
(0.03461 -0.0844628 0)
(0.0264829 -0.0797516 0)
(0.0290901 -0.0749211 0)
(0.038277 -0.0714274 0)
(0.0509736 -0.0688433 0)
(0.0651412 -0.0667392 0)
(0.0798439 -0.064876 0)
(0.0948363 -0.063162 0)
(0.110287 -0.0616004 0)
(0.126574 -0.0602765 0)
(0.144333 -0.0593043 0)
(0.164065 -0.0592395 0)
(0.187568 -0.0603806 0)
(0.215433 -0.0645896 0)
(0.250814 -0.0671325 0)
(0.12481 -0.183858 0)
(-0.298053 -0.0625711 0)
(-0.447578 0.0216503 0)
(-0.256679 0.00280919 0)
(-0.108731 0.0497064 0)
(0.0251844 0.00829487 0)
(0.099656 -0.029992 0)
(0.114928 -0.0201807 0)
(0.0892122 -0.0183527 0)
(0.056965 -0.0394464 0)
(0.0283408 -0.0663131 0)
(0.0176401 -0.084139 0)
(0.024115 -0.0921727 0)
(0.0387661 -0.0948742 0)
(0.0566903 -0.0956695 0)
(0.0759928 -0.0961961 0)
(0.0961766 -0.0972263 0)
(0.117233 -0.0991277 0)
(0.139514 -0.102128 0)
(0.163513 -0.106975 0)
(0.19304 -0.116639 0)
(0.22966 -0.130803 0)
(0.27925 -0.156219 0)
(-0.0349933 0.166292 0)
(-0.0832046 0.471064 0)
(-0.092601 0.206488 0)
(0.0785315 -0.775511 0)
(-0.0680934 -0.618665 0)
(0.0201839 -0.394963 0)
(-0.012909 -0.18477 0)
(0.0224921 -0.0472757 0)
(0.0471679 0.02531 0)
(0.0779891 0.0484527 0)
(0.108411 -0.00247291 0)
(0.131038 -0.0607283 0)
(0.144593 -0.097704 0)
(0.154372 -0.114811 0)
(0.164657 -0.122297 0)
(0.177134 -0.126694 0)
(0.19247 -0.13098 0)
(0.210989 -0.136346 0)
(0.233037 -0.14359 0)
(0.258006 -0.155131 0)
(0.283029 -0.182136 0)
(0.304055 -0.211411 0)
(0.318327 -0.277369 0)
(-0.0346893 0.153586 0)
(0.0177074 0.249349 0)
(0.155134 -0.128501 0)
(0.140391 -0.24838 0)
(0.00315153 -0.185579 0)
(-0.0276671 -0.166065 0)
(-0.0275365 -0.150404 0)
(-0.000510196 -0.132482 0)
(0.0371892 -0.122719 0)
(0.0760007 -0.121475 0)
(0.107005 -0.124205 0)
(0.126534 -0.128977 0)
(0.139366 -0.135055 0)
(0.150041 -0.142154 0)
(0.160612 -0.150135 0)
(0.172128 -0.158979 0)
(0.185443 -0.169058 0)
(0.201155 -0.180911 0)
(0.219306 -0.194759 0)
(0.239703 -0.210435 0)
(0.262007 -0.227206 0)
(0.284431 -0.240491 0)
(0.305432 -0.253359 0)
(-0.0148496 0.110844 0)
(0.0695529 0.037704 0)
(0.116655 -0.0852953 0)
(0.10075 -0.164783 0)
(0.073996 -0.192039 0)
(0.0607298 -0.204543 0)
(0.0563423 -0.18844 0)
(0.0574298 -0.166546 0)
(0.0663436 -0.151058 0)
(0.0794627 -0.144102 0)
(0.0926686 -0.144675 0)
(0.104302 -0.149169 0)
(0.1145 -0.155135 0)
(0.123846 -0.161943 0)
(0.132989 -0.170082 0)
(0.142782 -0.180604 0)
(0.154161 -0.194393 0)
(0.167423 -0.211057 0)
(0.182164 -0.229464 0)
(0.199123 -0.249293 0)
(0.218449 -0.269737 0)
(0.2394 -0.284817 0)
(0.260525 -0.299665 0)
(-0.00950212 0.0672112 0)
(0.0341422 -0.0936242 0)
(0.0536177 -0.182418 0)
(0.0636417 -0.203164 0)
(0.0665341 -0.189327 0)
(0.0626409 -0.172523 0)
(0.0596595 -0.165967 0)
(0.062096 -0.164011 0)
(0.0682349 -0.162937 0)
(0.0762436 -0.162875 0)
(0.0848642 -0.164224 0)
(0.0931306 -0.166912 0)
(0.10064 -0.171012 0)
(0.107536 -0.177141 0)
(0.114279 -0.186427 0)
(0.121482 -0.199845 0)
(0.129296 -0.217075 0)
(0.137012 -0.235441 0)
(0.14435 -0.256343 0)
(0.15442 -0.282663 0)
(0.167622 -0.308976 0)
(0.183458 -0.325143 0)
(0.195247 -0.331679 0)
(0.00686841 0.0515298 0)
(0.0283929 -0.0977161 0)
(0.0397092 -0.164365 0)
(0.0443906 -0.173707 0)
(0.0464721 -0.175374 0)
(0.0505066 -0.178468 0)
(0.0562252 -0.179792 0)
(0.0623417 -0.179568 0)
(0.0685438 -0.178959 0)
(0.0748071 -0.178717 0)
(0.080954 -0.179224 0)
(0.0867194 -0.180684 0)
(0.0919282 -0.183533 0)
(0.0965674 -0.188809 0)
(0.10066 -0.197852 0)
(0.104177 -0.211031 0)
(0.10627 -0.226562 0)
(0.106476 -0.241108 0)
(0.10576 -0.264581 0)
(0.107668 -0.299945 0)
(0.111603 -0.329166 0)
(0.116209 -0.341342 0)
(0.112906 -0.332369 0)
(0.00973717 0.00506184 0)
(0.025273 -0.139611 0)
(0.0355497 -0.193647 0)
(0.0420125 -0.196014 0)
(0.0475668 -0.191176 0)
(0.052599 -0.189453 0)
(0.0574192 -0.189331 0)
(0.0624555 -0.189339 0)
(0.067738 -0.189229 0)
(0.0730823 -0.189103 0)
(0.0782751 -0.189134 0)
(0.0831304 -0.18964 0)
(0.0874951 -0.191258 0)
(0.0911667 -0.195031 0)
(0.0937593 -0.201909 0)
(0.0947244 -0.211611 0)
(0.0930162 -0.222184 0)
(0.0895769 -0.232258 0)
(0.0850658 -0.258329 0)
(0.0789572 -0.296958 0)
(0.0717474 -0.323213 0)
(0.0643429 -0.329152 0)
(0.0520818 -0.307302 0)
(0.00874385 -0.0233425 0)
(0.022515 -0.163098 0)
(0.0316458 -0.204752 0)
(0.0373324 -0.203692 0)
(0.0428945 -0.20005 0)
(0.048856 -0.199638 0)
(0.0548135 -0.2001 0)
(0.0606572 -0.200313 0)
(0.0664033 -0.200167 0)
(0.0720173 -0.199739 0)
(0.0774332 -0.199199 0)
(0.0825908 -0.198872 0)
(0.0873968 -0.199242 0)
(0.0915887 -0.200928 0)
(0.0946699 -0.204413 0)
(0.0960068 -0.209575 0)
(0.0950791 -0.215598 0)
(0.0933164 -0.222873 0)
(0.0894467 -0.243623 0)
(0.0791691 -0.274011 0)
(0.0655283 -0.298755 0)
(0.0522229 -0.304316 0)
(0.0397124 -0.282801 0)
(0.00829197 -0.0535983 0)
(0.02023 -0.187378 0)
(0.0285326 -0.218804 0)
(0.034518 -0.215862 0)
(0.040656 -0.212703 0)
(0.0470804 -0.212291 0)
(0.053453 -0.212446 0)
(0.0597176 -0.21236 0)
(0.0659069 -0.211943 0)
(0.0720339 -0.211223 0)
(0.0780892 -0.210339 0)
(0.0840515 -0.209558 0)
(0.0898707 -0.209153 0)
(0.0953884 -0.209333 0)
(0.100292 -0.210308 0)
(0.10415 -0.212322 0)
(0.106778 -0.21551 0)
(0.108658 -0.220501 0)
(0.10839 -0.231145 0)
(0.102239 -0.24838 0)
(0.0908194 -0.270657 0)
(0.0777784 -0.279721 0)
(0.0677287 -0.269871 0)
(0.00757602 -0.0805548 0)
(0.0180281 -0.207908 0)
(0.0259103 -0.231808 0)
(0.0322549 -0.228271 0)
(0.0388376 -0.22575 0)
(0.0456297 -0.225435 0)
(0.052384 -0.225464 0)
(0.0590811 -0.22528 0)
(0.065759 -0.224823 0)
(0.0724494 -0.224091 0)
(0.0791645 -0.223188 0)
(0.0858914 -0.222344 0)
(0.0926068 -0.221761 0)
(0.0992787 -0.221496 0)
(0.10582 -0.221568 0)
(0.11203 -0.222171 0)
(0.117715 -0.223636 0)
(0.122609 -0.226436 0)
(0.126083 -0.230874 0)
(0.126968 -0.238147 0)
(0.123238 -0.250824 0)
(0.115925 -0.25966 0)
(0.108883 -0.2604 0)
(0.00666054 -0.104637 0)
(0.0160978 -0.226636 0)
(0.0238454 -0.245361 0)
(0.0305837 -0.241709 0)
(0.0375463 -0.239656 0)
(0.0446495 -0.239402 0)
(0.051736 -0.239369 0)
(0.0588026 -0.239163 0)
(0.0658776 -0.238748 0)
(0.0729922 -0.238109 0)
(0.0801636 -0.237306 0)
(0.0873769 -0.236533 0)
(0.0946004 -0.236014 0)
(0.101828 -0.235835 0)
(0.109071 -0.235919 0)
(0.116296 -0.236191 0)
(0.123345 -0.236746 0)
(0.129888 -0.237865 0)
(0.135577 -0.239699 0)
(0.14011 -0.24235 0)
(0.142495 -0.246793 0)
(0.142088 -0.251237 0)
(0.140089 -0.254065 0)
(0.00581312 -0.126124 0)
(0.0146075 -0.244116 0)
(0.0223751 -0.259447 0)
(0.0294724 -0.255883 0)
(0.0367583 -0.254158 0)
(0.0441306 -0.253948 0)
(0.0514916 -0.253893 0)
(0.0588484 -0.253698 0)
(0.0662188 -0.25335 0)
(0.0736248 -0.252826 0)
(0.0810827 -0.252141 0)
(0.0885775 -0.251421 0)
(0.0960575 -0.250888 0)
(0.103472 -0.250703 0)
(0.110816 -0.250839 0)
(0.118116 -0.251105 0)
(0.12535 -0.251331 0)
(0.132376 -0.251531 0)
(0.13895 -0.251869 0)
(0.144836 -0.252438 0)
(0.149778 -0.253247 0)
(0.153353 -0.254157 0)
(0.155661 -0.25509 0)
(0.00513631 -0.145536 0)
(0.0135581 -0.260966 0)
(0.0214483 -0.274132 0)
(0.0288728 -0.270691 0)
(0.0364274 -0.269177 0)
(0.0440382 -0.268998 0)
(0.0516382 -0.268936 0)
(0.0592356 -0.268753 0)
(0.06684 -0.268448 0)
(0.0744636 -0.268005 0)
(0.0821202 -0.267406 0)
(0.0898034 -0.266699 0)
(0.0974634 -0.266039 0)
(0.105019 -0.265614 0)
(0.112409 -0.265509 0)
(0.119636 -0.265609 0)
(0.12674 -0.265667 0)
(0.133732 -0.265475 0)
(0.140527 -0.264999 0)
(0.146951 -0.264358 0)
(0.152887 -0.263641 0)
(0.158172 -0.262833 0)
(0.162914 -0.262082 0)
(0.0046549 -0.163508 0)
(0.0129189 -0.277678 0)
(0.0209775 -0.289418 0)
(0.0286934 -0.286057 0)
(0.0364836 -0.284666 0)
(0.0443098 -0.284498 0)
(0.0521263 -0.284428 0)
(0.0599375 -0.284246 0)
(0.0677471 -0.283956 0)
(0.0755599 -0.28355 0)
(0.0833857 -0.283 0)
(0.0912278 -0.282302 0)
(0.0990597 -0.281521 0)
(0.106813 -0.2808 0)
(0.1144 -0.280281 0)
(0.121772 -0.279985 0)
(0.128943 -0.279753 0)
(0.135972 -0.279325 0)
(0.142893 -0.278505 0)
(0.149659 -0.277284 0)
(0.156193 -0.275788 0)
(0.162363 -0.27411 0)
(0.168308 -0.272363 0)
(0.00435302 -0.180581 0)
(0.0126161 -0.294529 0)
(0.0208619 -0.30526 0)
(0.0288232 -0.301916 0)
(0.0368297 -0.30059 0)
(0.0448541 -0.30042 0)
(0.0528678 -0.300335 0)
(0.0608739 -0.300142 0)
(0.0688741 -0.299846 0)
(0.0768693 -0.299445 0)
(0.0848644 -0.298915 0)
(0.0928668 -0.298231 0)
(0.100872 -0.297396 0)
(0.108845 -0.296478 0)
(0.116716 -0.295599 0)
(0.124413 -0.294857 0)
(0.131905 -0.294226 0)
(0.139225 -0.293525 0)
(0.146439 -0.292519 0)
(0.153581 -0.291065 0)
(0.160637 -0.289193 0)
(0.167504 -0.287018 0)
(0.174255 -0.284678 0)
(0.00420427 -0.197228 0)
(0.0125581 -0.311652 0)
(0.020982 -0.321583 0)
(0.0291469 -0.318205 0)
(0.0373462 -0.316913 0)
(0.0455546 -0.316733 0)
(0.0537506 -0.316629 0)
(0.0619385 -0.31642 0)
(0.0701206 -0.316111 0)
(0.0782978 -0.315701 0)
(0.0864728 -0.315173 0)
(0.0946518 -0.314504 0)
(0.102841 -0.313668 0)
(0.111032 -0.312676 0)
(0.119189 -0.311594 0)
(0.127252 -0.310524 0)
(0.13517 -0.309527 0)
(0.142936 -0.308537 0)
(0.150599 -0.307364 0)
(0.158217 -0.305813 0)
(0.165821 -0.303805 0)
(0.173365 -0.3014 0)
(0.180869 -0.298733 0)
(0.00418033 -0.213814 0)
(0.0126646 -0.329087 0)
(0.0212315 -0.338293 0)
(0.0295669 -0.33486 0)
(0.0379291 -0.333592 0)
(0.0463013 -0.333402 0)
(0.054664 -0.333281 0)
(0.0630221 -0.333059 0)
(0.0713793 -0.332743 0)
(0.0797383 -0.332329 0)
(0.088102 -0.331807 0)
(0.0964756 -0.331156 0)
(0.104867 -0.33035 0)
(0.113282 -0.329368 0)
(0.12171 -0.328227 0)
(0.130117 -0.326995 0)
(0.138456 -0.32576 0)
(0.146701 -0.324545 0)
(0.154872 -0.323244 0)
(0.163024 -0.321671 0)
(0.171206 -0.319679 0)
(0.179423 -0.31725 0)
(0.187663 -0.314474 0)
(0.00423497 -0.230565 0)
(0.0128561 -0.346797 0)
(0.0215274 -0.355286 0)
(0.029998 -0.351811 0)
(0.0384964 -0.350576 0)
(0.0470098 -0.350384 0)
(0.0555208 -0.350255 0)
(0.0640349 -0.350034 0)
(0.0725572 -0.349727 0)
(0.0810926 -0.34933 0)
(0.0896456 -0.348834 0)
(0.0982219 -0.348221 0)
(0.106829 -0.347471 0)
(0.115477 -0.346555 0)
(0.124171 -0.345458 0)
(0.132899 -0.344207 0)
(0.14163 -0.34288 0)
(0.150334 -0.341549 0)
(0.15901 -0.340192 0)
(0.167699 -0.33867 0)
(0.176455 -0.336807 0)
(0.185322 -0.334516 0)
(0.194258 -0.331822 0)
(0.00432184 -0.247603 0)
(0.0130667 -0.364719 0)
(0.0218038 -0.37248 0)
(0.0303685 -0.368994 0)
(0.0389778 -0.367813 0)
(0.0476098 -0.367632 0)
(0.0562483 -0.367513 0)
(0.0649003 -0.367314 0)
(0.0735728 -0.36704 0)
(0.0822723 -0.366689 0)
(0.0910056 -0.366251 0)
(0.0997801 -0.36571 0)
(0.108604 -0.365051 0)
(0.117488 -0.364246 0)
(0.126444 -0.363267 0)
(0.135476 -0.362111 0)
(0.144572 -0.360827 0)
(0.153706 -0.359501 0)
(0.162866 -0.358175 0)
(0.172077 -0.356775 0)
(0.181386 -0.355133 0)
(0.190868 -0.353112 0)
(0.200453 -0.35067 0)
(0.00441688 -0.264966 0)
(0.013251 -0.382771 0)
(0.0220072 -0.389807 0)
(0.0306304 -0.386354 0)
(0.0393208 -0.385253 0)
(0.0480444 -0.385103 0)
(0.0567848 -0.385015 0)
(0.0655505 -0.384861 0)
(0.0743506 -0.38465 0)
(0.0831936 -0.384379 0)
(0.0920885 -0.384035 0)
(0.101045 -0.383606 0)
(0.110072 -0.383078 0)
(0.119182 -0.382431 0)
(0.128389 -0.381633 0)
(0.137707 -0.380665 0)
(0.147138 -0.379544 0)
(0.156669 -0.378346 0)
(0.166285 -0.377149 0)
(0.175996 -0.375943 0)
(0.185835 -0.374599 0)
(0.195896 -0.372954 0)
(0.20608 -0.370909 0)
(0.00451048 -0.282621 0)
(0.0133742 -0.400835 0)
(0.0220941 -0.407176 0)
(0.030747 -0.403825 0)
(0.0394855 -0.402833 0)
(0.048267 -0.402736 0)
(0.0570763 -0.402703 0)
(0.0659234 -0.402624 0)
(0.0748195 -0.402507 0)
(0.0837755 -0.40235 0)
(0.0928024 -0.402141 0)
(0.101912 -0.401868 0)
(0.111116 -0.401518 0)
(0.120427 -0.401077 0)
(0.129862 -0.400518 0)
(0.139438 -0.399815 0)
(0.149169 -0.398963 0)
(0.159056 -0.398013 0)
(0.169085 -0.397052 0)
(0.179261 -0.396121 0)
(0.189594 -0.395142 0)
(0.200194 -0.393958 0)
(0.210926 -0.392427 0)
(0.00458452 -0.300487 0)
(0.0134075 -0.418775 0)
(0.0220483 -0.424502 0)
(0.0307006 -0.421333 0)
(0.0394506 -0.420482 0)
(0.0482499 -0.420457 0)
(0.0570868 -0.420503 0)
(0.0659744 -0.420527 0)
(0.0749256 -0.420538 0)
(0.0839534 -0.420532 0)
(0.0930711 -0.420498 0)
(0.102293 -0.420425 0)
(0.111632 -0.420304 0)
(0.121105 -0.42012 0)
(0.130728 -0.419856 0)
(0.140522 -0.419487 0)
(0.150506 -0.418994 0)
(0.160692 -0.418402 0)
(0.171076 -0.417788 0)
(0.181659 -0.41722 0)
(0.192436 -0.416674 0)
(0.203519 -0.41602 0)
(0.214739 -0.415098 0)
(0.00460429 -0.318439 0)
(0.0133384 -0.436474 0)
(0.0218934 -0.44173 0)
(0.0305128 -0.438812 0)
(0.0392319 -0.438116 0)
(0.0480033 -0.43818 0)
(0.0568196 -0.438326 0)
(0.0656988 -0.43848 0)
(0.0746545 -0.438649 0)
(0.0837022 -0.438829 0)
(0.0928575 -0.439009 0)
(0.102136 -0.439181 0)
(0.111556 -0.439336 0)
(0.121133 -0.439463 0)
(0.130887 -0.43955 0)
(0.140838 -0.439575 0)
(0.15101 -0.439518 0)
(0.161424 -0.439381 0)
(0.172085 -0.439219 0)
(0.182996 -0.439108 0)
(0.194141 -0.439066 0)
(0.205633 -0.439005 0)
(0.217264 -0.438771 0)
(0.00453625 -0.33631 0)
(0.0131909 -0.45391 0)
(0.0216954 -0.458849 0)
(0.0302472 -0.456192 0)
(0.0388851 -0.455642 0)
(0.0475766 -0.455802 0)
(0.0563183 -0.456067 0)
(0.0651329 -0.456374 0)
(0.074035 -0.456728 0)
(0.0830417 -0.457124 0)
(0.0921709 -0.457554 0)
(0.101441 -0.458011 0)
(0.110872 -0.458486 0)
(0.120482 -0.458973 0)
(0.130291 -0.459462 0)
(0.140322 -0.459938 0)
(0.150599 -0.46038 0)
(0.161148 -0.460779 0)
(0.171985 -0.461166 0)
(0.183122 -0.461605 0)
(0.194536 -0.462143 0)
(0.206337 -0.462737 0)
(0.218283 -0.463256 0)
(0.0043692 -0.353928 0)
(0.0130237 -0.471216 0)
(0.0215418 -0.475875 0)
(0.0299772 -0.473382 0)
(0.0384727 -0.472948 0)
(0.047024 -0.473209 0)
(0.0556313 -0.473609 0)
(0.0643204 -0.474086 0)
(0.0731049 -0.474647 0)
(0.0820044 -0.475286 0)
(0.0910382 -0.475995 0)
(0.100227 -0.476769 0)
(0.109591 -0.477602 0)
(0.119152 -0.478489 0)
(0.128931 -0.479424 0)
(0.13895 -0.480395 0)
(0.149234 -0.481388 0)
(0.159812 -0.482387 0)
(0.17071 -0.483403 0)
(0.181947 -0.484484 0)
(0.193504 -0.485681 0)
(0.20549 -0.486994 0)
(0.217633 -0.488326 0)
(0.00412218 -0.371178 0)
(0.0128943 -0.488632 0)
(0.0214813 -0.492804 0)
(0.0297255 -0.490253 0)
(0.0380054 -0.489902 0)
(0.0463505 -0.490278 0)
(0.0547572 -0.490828 0)
(0.0632563 -0.491493 0)
(0.0718566 -0.492277 0)
(0.0805801 -0.493178 0)
(0.089447 -0.494188 0)
(0.0984788 -0.495303 0)
(0.107698 -0.496521 0)
(0.117126 -0.497838 0)
(0.126784 -0.49925 0)
(0.136694 -0.500749 0)
(0.146882 -0.502326 0)
(0.157378 -0.503969 0)
(0.168211 -0.505675 0)
(0.179411 -0.507471 0)
(0.190969 -0.509405 0)
(0.20299 -0.5115 0)
(0.215192 -0.5137 0)
(0.00384134 -0.388018 0)
(0.0128211 -0.506372 0)
(0.0214643 -0.509551 0)
(0.0294239 -0.506635 0)
(0.0374045 -0.50635 0)
(0.0454781 -0.506866 0)
(0.0536125 -0.507588 0)
(0.0618541 -0.508454 0)
(0.070201 -0.509477 0)
(0.0786775 -0.510655 0)
(0.0873046 -0.511982 0)
(0.0961035 -0.513455 0)
(0.105097 -0.515075 0)
(0.114307 -0.51684 0)
(0.123754 -0.518747 0)
(0.13346 -0.520793 0)
(0.14345 -0.522973 0)
(0.153751 -0.525281 0)
(0.164398 -0.527711 0)
(0.175427 -0.530275 0)
(0.186838 -0.533006 0)
(0.198736 -0.535938 0)
(0.210841 -0.539051 0)
(0.00359831 -0.404461 0)
(0.0127815 -0.524467 0)
(0.0213466 -0.525915 0)
(0.0289343 -0.522342 0)
(0.0365274 -0.522134 0)
(0.0442711 -0.522828 0)
(0.052059 -0.523739 0)
(0.0599711 -0.524823 0)
(0.0679923 -0.526097 0)
(0.0761471 -0.527563 0)
(0.0844578 -0.529218 0)
(0.0929447 -0.531061 0)
(0.10163 -0.533092 0)
(0.110535 -0.535313 0)
(0.11968 -0.537723 0)
(0.129086 -0.540322 0)
(0.138775 -0.543111 0)
(0.148775 -0.546088 0)
(0.159121 -0.549252 0)
(0.169848 -0.552606 0)
(0.180971 -0.556171 0)
(0.192589 -0.559979 0)
(0.204437 -0.564034 0)
(0.00349956 -0.420587 0)
(0.0127564 -0.542692 0)
(0.0209717 -0.541597 0)
(0.0281311 -0.537221 0)
(0.0352498 -0.537128 0)
(0.0426093 -0.538032 0)
(0.0499794 -0.539142 0)
(0.0574856 -0.540454 0)
(0.0651055 -0.541989 0)
(0.0728598 -0.543752 0)
(0.0807725 -0.545741 0)
(0.0888629 -0.547957 0)
(0.0971524 -0.550403 0)
(0.105661 -0.55308 0)
(0.114409 -0.555993 0)
(0.123415 -0.559144 0)
(0.132701 -0.562537 0)
(0.142293 -0.566175 0)
(0.152223 -0.570063 0)
(0.162526 -0.574204 0)
(0.173222 -0.57861 0)
(0.184406 -0.583309 0)
(0.195839 -0.588318 0)
(0.00368177 -0.43662 0)
(0.012773 -0.560555 0)
(0.0202631 -0.556226 0)
(0.0269758 -0.55115 0)
(0.0335411 -0.551232 0)
(0.0404542 -0.552352 0)
(0.047341 -0.553662 0)
(0.0543638 -0.555203 0)
(0.0615054 -0.557002 0)
(0.068779 -0.559062 0)
(0.0762098 -0.561385 0)
(0.0838164 -0.563973 0)
(0.0916189 -0.566829 0)
(0.0996371 -0.569958 0)
(0.107889 -0.573365 0)
(0.116393 -0.577056 0)
(0.125169 -0.581039 0)
(0.134242 -0.58532 0)
(0.14364 -0.589909 0)
(0.153397 -0.594813 0)
(0.163531 -0.600042 0)
(0.174126 -0.605618 0)
(0.184987 -0.611565 0)
(0.00425537 -0.452959 0)
(0.0128909 -0.577338 0)
(0.0192458 -0.569389 0)
(0.0255147 -0.563985 0)
(0.0314612 -0.564309 0)
(0.0378483 -0.565627 0)
(0.0441901 -0.567128 0)
(0.0506554 -0.568895 0)
(0.0572438 -0.570953 0)
(0.0639596 -0.573306 0)
(0.0708276 -0.575956 0)
(0.0778657 -0.578906 0)
(0.0850928 -0.582161 0)
(0.0925276 -0.585728 0)
(0.100187 -0.589613 0)
(0.108087 -0.593825 0)
(0.116247 -0.598373 0)
(0.124688 -0.603269 0)
(0.133437 -0.608524 0)
(0.142521 -0.61415 0)
(0.151962 -0.62016 0)
(0.16182 -0.626572 0)
(0.17195 -0.633413 0)
(0.00521107 -0.47019 0)
(0.0131262 -0.592281 0)
(0.0179879 -0.580791 0)
(0.0238053 -0.575617 0)
(0.0290837 -0.576242 0)
(0.0348528 -0.577729 0)
(0.040587 -0.579416 0)
(0.0464269 -0.581404 0)
(0.0523916 -0.583717 0)
(0.0584786 -0.586355 0)
(0.0647095 -0.58932 0)
(0.0711015 -0.592618 0)
(0.0776717 -0.596255 0)
(0.0844377 -0.600239 0)
(0.0914145 -0.604579 0)
(0.0986167 -0.609284 0)
(0.10606 -0.614366 0)
(0.113762 -0.619838 0)
(0.121747 -0.625715 0)
(0.130038 -0.632011 0)
(0.138656 -0.638743 0)
(0.147643 -0.64593 0)
(0.156893 -0.653598 0)
(0.00634294 -0.488938 0)
(0.0133542 -0.604732 0)
(0.016522 -0.590368 0)
(0.0218493 -0.586024 0)
(0.026423 -0.586984 0)
(0.0314883 -0.58862 0)
(0.0365512 -0.590497 0)
(0.0417048 -0.592705 0)
(0.0469812 -0.595265 0)
(0.0523751 -0.598176 0)
(0.0579026 -0.601441 0)
(0.0635792 -0.605067 0)
(0.0694202 -0.609063 0)
(0.0754408 -0.613436 0)
(0.0816543 -0.618197 0)
(0.0880726 -0.623357 0)
(0.0947077 -0.628928 0)
(0.101575 -0.634925 0)
(0.108692 -0.641365 0)
(0.116081 -0.648263 0)
(0.12376 -0.655639 0)
(0.131749 -0.663515 0)
(0.139984 -0.67192 0)
(0.0072899 -0.509041 0)
(0.0133072 -0.613821 0)
(0.0148173 -0.597874 0)
(0.019594 -0.594832 0)
(0.0234362 -0.596111 0)
(0.0277355 -0.59789 0)
(0.0320727 -0.599958 0)
(0.036491 -0.60238 0)
(0.0410251 -0.605171 0)
(0.0456697 -0.608333 0)
(0.0504353 -0.611871 0)
(0.0553355 -0.615793 0)
(0.0603837 -0.620108 0)
(0.0655932 -0.624827 0)
(0.0709751 -0.629958 0)
(0.076538 -0.635514 0)
(0.0822898 -0.641508 0)
(0.0882415 -0.647954 0)
(0.0944088 -0.65487 0)
(0.10081 -0.662275 0)
(0.107459 -0.670189 0)
(0.114352 -0.678633 0)
(0.121466 -0.687637 0)
(0.00776622 -0.529517 0)
(0.0127706 -0.618954 0)
(0.0128373 -0.603178 0)
(0.0169968 -0.601637 0)
(0.0201006 -0.60317 0)
(0.0236033 -0.605088 0)
(0.0271791 -0.607339 0)
(0.0308297 -0.609959 0)
(0.0345828 -0.612961 0)
(0.038436 -0.616348 0)
(0.0423955 -0.620127 0)
(0.0464726 -0.624307 0)
(0.0506797 -0.628898 0)
(0.0550286 -0.63391 0)
(0.0595282 -0.639353 0)
(0.0641838 -0.645239 0)
(0.0689991 -0.651581 0)
(0.0739804 -0.658395 0)
(0.0791405 -0.665703 0)
(0.0844956 -0.673523 0)
(0.0900593 -0.681874 0)
(0.0958151 -0.690773 0)
(0.101765 -0.700248 0)
(0.00765373 -0.550942 0)
(0.0116614 -0.621705 0)
(0.0105942 -0.608039 0)
(0.0140388 -0.607884 0)
(0.0164241 -0.609605 0)
(0.0191214 -0.611669 0)
(0.0219094 -0.614103 0)
(0.0247668 -0.616917 0)
(0.0277092 -0.620123 0)
(0.0307378 -0.623726 0)
(0.0338574 -0.627734 0)
(0.0370776 -0.632156 0)
(0.0404091 -0.637 0)
(0.0438612 -0.642279 0)
(0.0474393 -0.648002 0)
(0.0511442 -0.654183 0)
(0.0549757 -0.660839 0)
(0.0589364 -0.667987 0)
(0.0630366 -0.67565 0)
(0.0672911 -0.683845 0)
(0.0717159 -0.69259 0)