/*--------------------------------*- C++ -*----------------------------------*\
| =========                 |                                                 |
| \\      /  F ield         | OpenFOAM: The Open Source CFD Toolbox           |
|  \\    /   O peration     | Version:  2206                                  |
|   \\  /    A nd           | Website:  www.openfoam.com                      |
|    \\/     M anipulation  |                                                 |
\*---------------------------------------------------------------------------*/
FoamFile
{
    version     2.0;
    format      ascii;
    arch        "LSB;label=32;scalar=64";
    class       volScalarField;
    location    "0.775";
    object      alpha.water;
}
// * * * * * * * * * * * * * * * * * * * * * * * * * * * * * * * * * * * * * //

dimensions      [0 0 0 0 0 0 0];

internalField   nonuniform List<scalar> 
2268
(
1
1
1
1
1
1
1
1
1
1
1
1
1
1
1
1
1
1
1
0.999996
0.999998
0.999998
0.969561
1
1
1
1
1
1
1
1
1
1
1
1
1
1
1
1
1
1
1
0.999996
0.999996
0.999998
0.938565
1
1
1
1
1
1
1
1
1
1
1
1
1
1
1
1
1
1
1
1
1
0.956542
0.911065
1
1
1
1
1
1
1
1
1
1
1
1
1
1
1
1
1
1
1
1
1
0.975475
0.911131
1
1
1
1
1
1
1
1
1
1
1
1
1
1
1
1
1
1
1
1
1
0.999172
0.989894
1
1
0.999998
1
1
1
1
1
1
1
1
1
1
1
1
1
1
1
1
1
1
1
0.999999
1
1
0.999957
0.999743
0.999977
1
1
1
1
1
1
1
1
1
1
1
1
1
1
1
1
1
0.999999
1
1
0.999985
0.998474
0.999668
1
1
1
0.999998
1
1
1
0.999474
0.971954
0.937662
0.90614
0.879634
0.858101
0.83046
0.795234
0.744328
0.618251
0.490185
0.417309
0.417309
0.136248
0.0295386
0.106031
0.106984
0.107198
0.107095
0.0516872
0.0362368
0.382152
0.457366
0.457366
0.457366
0.440008
0.414888
0.414756
0.414471
0.414168
0.417309
0.34914
0.031322
0.0268316
0.0456839
0.0644362
0.0824185
0.0762938
0.0180204
0.0179032
0.0579842
0.436741
0.457366
0.3591
0.0915528
0.0191166
0.0462954
0.340374
0.414154
0.417221
0.229941
0.0268323
0.0268323
0.0591076
0.0155986
0.00739397
0.00739397
0.00765634
0.0629623
0.215221
0.236067
0.0623547
0.0210944
0.0206908
0.0135577
0.0127217
0.0935959
0.395735
0.403142
0.111693
0.0272941
0.0376813
0.0736771
0.0472617
0.00767898
0.0274388
0.11291
0.113414
0.0818948
0.0156833
0.0217826
0.0344061
0.0242771
0.0325537
0.0113999
0.0063237
0.382464
0.310545
0.0528551
0.0359676
0.0973653
0.0738406
0.0152839
0.0146839
0.104971
0.113414
0.0916559
0.00458586
0.0145433
0.0405071
0.0410936
0.0413047
0.0412966
0.0155949
0.00499932
0.381237
0.214248
0.108819
0.109954
0.0988993
0.00819018
0.000996145
0.0318803
0.112501
0.113255
0.040506
0.00327574
0.0174415
0.0408826
0.0293108
0.0199935
0.035326
0.00916003
0.0034944
0.337437
0.207315
0.199034
0.0992511
2.26523e-06
2.42815e-05
0.000164373
0.0145211
0.0882042
0.110538
0.00728528
0.00292033
0.00842196
0.0333006
0.0066078
0.00647489
0.00702117
0.0164198
0.003341
0.135482
0.121546
0.0128249
8.81814e-08
9.34415e-07
2.25493e-06
2.41808e-05
0.00206875
0.0570713
0.107337
0.013538
0.00291707
0.00272845
0.0022631
0.00631557
0.014925
0.00751349
0.0136478
0.00306981
0.112113
0.999996
0.999987
0.999955
0.999176
0.999629
0.996617
0.987497
0.92767
0.795781
0.694493
0.608238
0.499157
0.371968
0.287442
0.237448
0.208456
0.192165
0.183456
0.176546
0.140908
0.0914309
0.0517298
0.0530835
0.960363
0.919817
0.870878
0.791295
0.664436
0.528608
0.37151
0.207131
0.100955
0.056861
0.0332505
0.0176035
0.00561858
6.55792e-05
3.82713e-05
3.34231e-05
3.04275e-05
3.49379e-05
5.17418e-05
6.32739e-05
8.73633e-05
4.66289e-05
4.76931e-07
0.287146
0.204022
0.140206
0.08798
0.0343781
7.16485e-15
2.15578e-13
5.92901e-12
1.55411e-10
8.58162e-10
1.35519e-09
2.20872e-09
3.12316e-09
1.34107e-06
1.16645e-06
8.37923e-07
5.80096e-07
7.58886e-07
1.90811e-06
3.44824e-06
4.84606e-06
1.44152e-06
2.13136e-08
6.313e-11
0
-3.82874e-18
6.82668e-34
-2.69689e-64
-5.12177e-31
1.87747e-17
5.91037e-16
3.02968e-14
7.42762e-09
9.46384e-08
2.06975e-07
4.17944e-08
3.44342e-08
3.02457e-08
2.16203e-08
2.14558e-08
2.03997e-08
5.93895e-08
1.34438e-07
2.25175e-07
8.64078e-09
1.06483e-08
3.06e-08
3.41468e-09
-1.24132e-16
-4.64441e-16
-6.70352e-16
-8.33355e-18
-2.16403e-23
1.87335e-17
5.87039e-16
3.04328e-14
2.16373e-11
4.99135e-09
1.50455e-09
7.4105e-10
7.28185e-10
1.41634e-09
2.60634e-09
6.01487e-10
1.8405e-09
4.6766e-09
7.87831e-09
4.79877e-11
1.72125e-11
1.49464e-07
6.25797e-08
-1.22568e-15
-3.10902e-15
-3.81596e-15
-1.50995e-16
-2.94531e-22
3.77157e-17
9.72025e-15
5.27606e-13
4.1627e-12
1.68546e-12
6.52233e-12
1.51867e-11
1.85391e-11
2.12349e-11
2.12845e-11
2.2267e-11
6.60274e-11
1.42104e-10
2.32665e-10
7.79711e-13
2.60748e-16
1.49464e-07
3.68171e-08
-4.26668e-35
1.29738e-17
1.45069e-17
1.76073e-19
-1.09058e-19
-1.11093e-35
3.63518e-17
3.76343e-15
1.30996e-13
7.7218e-13
1.60107e-13
5.82174e-13
8.33363e-13
7.18231e-13
6.08678e-13
1.04235e-12
3.11132e-12
6.67238e-12
9.22978e-12
3.00964e-14
1.86015e-16
8.55371e-08
5.3906e-10
1.32735e-19
4.47649e-18
1.54601e-19
-3.19106e-19
-1.59238e-18
-5.13542e-18
0
1.60357e-17
1.67623e-15
2.00511e-14
4.4388e-14
9.80267e-14
2.02154e-13
1.55546e-13
1.28553e-13
3.47109e-13
5.7529e-13
2.25579e-13
2.96765e-13
1.412e-15
8.31897e-16
1.28738e-09
1.48977e-18
2.64185e-19
1.73609e-17
-1.31044e-21
-8.29425e-20
-4.58643e-19
-1.83728e-18
-4.55848e-18
-1.53042e-18
9.28846e-18
2.53083e-16
1.22104e-15
3.81979e-15
9.01769e-15
9.02674e-15
7.59459e-15
2.40893e-14
4.3601e-14
4.83831e-14
2.37699e-14
8.42801e-16
8.45365e-16
1.26755e-12
9.02888e-13
2.15013e-15
1.87292e-17
1.75898e-20
-9.60802e-21
-5.61727e-20
-2.26252e-19
-6.39323e-19
-1.13621e-18
1.24744e-20
1.6818e-18
1.64847e-17
6.18184e-17
1.30228e-16
1.62885e-16
1.7791e-16
5.1353e-16
1.30648e-15
2.17956e-15
1.03658e-15
3.94358e-16
8.25431e-16
1.24799e-11
1.27194e-12
6.11093e-15
2.03474e-18
1.91978e-20
-4.16027e-22
-3.55341e-21
-1.3834e-20
-4.01944e-20
-1.02766e-19
-1.80685e-19
4.86974e-21
1.41461e-19
8.58828e-19
1.94015e-18
2.97922e-18
5.13866e-18
1.49217e-17
4.17593e-17
8.38484e-17
1.39401e-16
2.94581e-16
7.77184e-16
1.05304e-11
1.15165e-12
5.48501e-15
1.50322e-18
7.51809e-21
8.34437e-23
-8.07748e-23
-3.00722e-22
-8.96006e-22
-3.75362e-21
-1.46412e-20
-1.90985e-20
5.67651e-22
1.01452e-20
7.4794e-20
2.23241e-19
6.14118e-19
2.06385e-18
6.73239e-18
2.12381e-17
6.96132e-17
2.27728e-16
6.59446e-16
5.80161e-12
9.85815e-13
3.4187e-15
6.81297e-19
2.62585e-21
3.13158e-23
1.65563e-24
1.62829e-24
7.67446e-24
-1.73186e-23
-3.67735e-22
-1.22368e-21
-2.54487e-22
2.0649e-21
1.58639e-20
5.30869e-20
1.98049e-19
7.63257e-19
2.75713e-18
1.01069e-17
4.02219e-17
1.56943e-16
5.05296e-16
4.81447e-12
8.83607e-13
1.98989e-15
2.46852e-19
9.90162e-22
1.1059e-23
2.13988e-25
7.48296e-26
1.99414e-25
1.06828e-24
1.62232e-24
9.83051e-42
1.27561e-22
9.92194e-22
4.09796e-21
1.66948e-20
7.06485e-20
2.89229e-19
1.12393e-18
4.66294e-18
2.20785e-17
1.0024e-16
3.63054e-16
5.1607e-12
8.51812e-13
1.38572e-15
8.40127e-20
4.76613e-22
4.26247e-24
6.42997e-26
1.58406e-26
2.57628e-26
1.73111e-25
1.233e-24
7.95002e-24
4.93775e-23
2.32296e-22
1.03206e-21
4.77865e-21
2.11786e-20
9.06018e-20
3.8634e-19
1.89029e-18
1.10137e-17
6.0017e-17
2.51121e-16
6.50929e-12
8.48765e-13
9.22791e-16
5.18737e-20
4.03678e-22
2.9504e-24
2.7713e-26
3.03627e-27
3.65969e-27
2.252e-26
1.72514e-25
1.30005e-24
8.08892e-24
4.50061e-23
2.414e-22
1.16761e-21
5.2626e-21
2.40987e-20
1.17039e-19
6.90089e-19
5.01532e-18
3.35014e-17
1.53976e-16
8.71715e-12
8.42149e-13
4.88223e-16
5.40224e-20
4.83288e-22
3.13154e-24
2.30416e-26
6.36162e-28
4.63175e-28
2.86789e-27
2.38569e-26
1.90356e-25
1.36227e-24
8.66157e-24
5.16672e-23
2.53426e-22
1.17761e-21
5.89234e-21
3.28837e-20
2.42997e-19
2.29851e-18
1.82823e-17
1.24421e-16
1.0033e-11
7.99472e-13
2.01935e-16
9.81464e-20
9.66677e-22
5.53865e-24
3.16598e-26
3.28106e-28
7.7339e-29
3.68476e-28
3.2835e-27
2.87962e-26
2.26524e-25
1.57699e-24
1.02336e-23
5.06476e-23
2.5182e-22
1.34899e-21
8.6524e-21
9.92817e-20
1.19939e-18
7.98361e-18
7.28313e-17
1.01696e-11
6.70859e-13
1.18814e-16
2.33888e-19
2.31756e-21
1.19565e-23
5.66707e-26
3.54841e-28
2.8834e-29
5.12802e-29
4.43474e-28
4.23905e-27
3.61385e-26
2.71482e-25
1.88827e-24
9.53521e-24
5.26676e-23
2.77733e-22
2.38115e-21
8.01272e-20
5.6543e-19
7.7285e-19
1.21796e-17
9.94978e-12
6.30091e-13
1.72239e-16
6.30778e-19
6.36659e-21
3.38731e-23
1.47527e-25
8.10407e-28
1.52563e-29
8.86797e-30
5.90879e-29
6.06602e-28
5.5553e-27
4.4549e-26
3.24784e-25
1.73429e-24
1.13755e-23
4.05272e-23
1.73747e-21
1.24929e-19
-8.02563e-20
-5.07934e-18
-2.48719e-17
8.51893e-12
6.3999e-13
6.1548e-16
1.58019e-18
1.61943e-20
1.01875e-22
5.04673e-25
2.78624e-27
1.76565e-29
2.63746e-30
8.03659e-30
8.45975e-29
8.25319e-28
7.02717e-27
5.14951e-26
3.48723e-25
3.04724e-24
3.96425e-25
2.69225e-22
1.03676e-19
-8.72344e-19
-1.04945e-17
-4.97822e-17
5.55082e-12
5.47809e-13
2.04257e-15
2.68793e-18
3.01092e-20
2.23948e-22
1.38271e-24
9.05507e-27
6.69727e-29
1.77247e-30
1.3696e-30
1.14566e-29
1.18563e-28
1.07228e-27
7.46279e-27
1.67161e-25
4.15355e-26
-2.08108e-23
-5.43695e-22
1.22189e-20
-1.4504e-18
-1.26939e-17
-5.5236e-17
2.41531e-12
3.23397e-13
2.56977e-15
3.39097e-18
2.41106e-20
2.63377e-22
2.05879e-24
1.54999e-26
1.35575e-28
1.36891e-30
3.12162e-31
1.54566e-30
1.64904e-29
1.57754e-28
1.06418e-27
5.79152e-26
-1.01213e-24
-3.34942e-23
-1.1755e-21
-3.67613e-20
-1.56201e-18
-1.15618e-17
-4.64149e-17
6.3874e-13
1.14463e-13
1.6836e-15
2.92998e-18
1.37443e-20
1.82192e-22
1.91217e-24
1.70036e-26
1.57316e-28
1.49607e-30
1.67432e-31
2.35832e-31
2.2162e-30
2.21451e-29
1.5791e-28
1.0996e-26
-1.47793e-24
-3.7549e-23
-1.58191e-21
-5.18942e-20
-1.29788e-18
-8.58466e-18
-3.19819e-17
1.03864e-13
2.32283e-14
4.91989e-16
1.11895e-18
3.40852e-21
7.56703e-23
1.12462e-24
1.12304e-26
1.0966e-28
1.16731e-30
4.02612e-32
3.35211e-32
2.90254e-31
2.90151e-30
3.182e-29
2.8461e-28
-1.48475e-24
-3.50304e-23
-1.66985e-21
-4.72221e-20
-8.99069e-19
-5.40835e-18
-1.86705e-17
1.21688e-14
2.97273e-15
7.55648e-17
2.35287e-19
1.00949e-21
2.33629e-23
3.71154e-25
4.06757e-27
4.31177e-29
4.9055e-31
9.32157e-33
4.38425e-33
3.69577e-32
3.60457e-31
1.50068e-29
-1.1306e-27
-1.2396e-24
-2.87554e-23
-1.46708e-21
-3.54885e-20
-5.45541e-19
-2.97627e-18
-9.44772e-18
1.22771e-15
2.90225e-16
8.13475e-18
3.21611e-20
2.28581e-22
5.01751e-24
7.70563e-26
8.86777e-28
1.00477e-29
1.20027e-31
1.89832e-33
5.34277e-34
4.49881e-33
5.07449e-32
2.00586e-30
-1.60652e-27
-9.11456e-25
-2.12799e-23
-1.114e-21
-2.34743e-20
-3.01157e-19
-1.48703e-18
-4.33485e-18
1.12568e-16
2.43055e-17
6.89912e-19
3.14221e-21
3.21914e-23
6.60711e-25
9.66154e-27
1.14971e-28
1.36763e-30
1.68611e-32
2.3898e-34
5.96762e-35
5.10937e-34
1.63295e-32
-2.96272e-31
-1.52525e-27
-6.04384e-25
-1.43786e-23
-7.49111e-22
-1.39876e-20
-1.53466e-19
-6.84277e-19
-1.86149e-18
9.12569e-18
1.75839e-18
4.60857e-20
2.25897e-22
2.92757e-24
5.47336e-26
7.54916e-28
9.11984e-30
1.10972e-31
1.3811e-33
1.79156e-35
6.00732e-36
5.6164e-35
3.17567e-33
-7.73861e-31
-1.18848e-27
-3.65608e-25
-8.93317e-24
-4.53105e-22
-7.60205e-21
-7.27196e-20
-2.89909e-19
-7.60618e-19
6.32374e-19
1.07583e-19
2.36927e-21
1.19944e-23
1.74984e-25
2.90492e-27
3.76426e-29
4.52571e-31
5.47951e-33
6.73824e-35
8.25531e-37
5.71872e-37
6.82286e-36
2.26476e-34
-8.40371e-31
-8.03756e-28
-2.02827e-25
-5.11734e-24
-2.48758e-22
-3.7909e-21
-3.21487e-20
-1.12253e-19
-3.05757e-19
3.65987e-20
5.50396e-21
9.26109e-23
4.71467e-25
6.95884e-27
1.02758e-28
1.27226e-30
1.49459e-32
1.75556e-34
2.07883e-36
2.53112e-38
4.91145e-38
1.71854e-36
-1.23159e-34
-6.84181e-31
-4.81964e-28
-1.03404e-25
-2.70568e-24
-1.24643e-22
-1.74034e-21
-1.32576e-20
-3.88964e-20
-1.27698e-19
1.74085e-21
2.34862e-22
2.77577e-24
1.39615e-26
1.98732e-28
2.68788e-30
3.16851e-32
3.56326e-34
3.96756e-36
4.43089e-38
6.99168e-40
3.91941e-39
2.14724e-37
-1.93859e-34
-4.62799e-31
-2.58338e-28
-4.83267e-26
-1.31516e-24
-5.6878e-23
-7.31401e-22
-5.04422e-21
-1.14534e-20
-5.84426e-20
6.72999e-23
8.35123e-24
6.53412e-26
3.23274e-28
4.38683e-30
5.48047e-32
6.10328e-34
6.4814e-36
6.73943e-38
6.95216e-40
2.64016e-41
3.21175e-40
1.12499e-38
-1.72586e-34
-2.68422e-31
-1.23819e-28
-2.05806e-26
-5.83763e-25
-2.35172e-23
-2.79447e-22
-1.75374e-21
-2.64525e-21
-2.95128e-20
2.09934e-24
2.46782e-25
1.25512e-27
5.94601e-30
7.55845e-32
8.73548e-34
9.12044e-36
9.01705e-38
8.60766e-40
8.01764e-42
1.43966e-42
4.50597e-41
-5.63746e-39
-1.16588e-34
-1.34775e-31
-5.28607e-29
-7.92365e-27
-2.34627e-25
-8.74635e-24
-9.62283e-23
-5.51049e-22
-4.15631e-22
-1.52235e-20
5.25999e-26
6.01173e-27
2.01558e-29
8.76422e-32
1.02819e-33
1.09621e-35
1.06047e-37
9.60056e-40
8.2478e-42
6.96591e-44
7.35996e-44
3.28239e-42
-7.60768e-39
-6.37893e-35
-5.85337e-32
-1.99388e-29
-2.72785e-27
-8.44215e-26
-2.89538e-24
-2.95259e-23
-1.54407e-22
-4.35487e-23
-7.24743e-21
1.05529e-27
1.19426e-28
2.71729e-31
1.0514e-33
1.12342e-35
1.09291e-37
9.63379e-40
7.82327e-42
5.88734e-44
5.4151e-46
3.65562e-45
2.54804e-45
-5.55882e-39
-2.87136e-35
-2.18033e-32
-6.56002e-30
-8.27356e-28
-2.67844e-26
-8.41027e-25
-7.95384e-24
-3.79572e-23
-1.63464e-23
-2.94082e-21
1.69123e-29
1.91265e-30
3.02776e-33
1.03842e-35
9.98518e-38
8.74231e-40
6.86307e-42
4.86404e-44
3.09121e-46
6.54315e-48
2.26338e-46
-1.44055e-43
-2.89139e-39
-1.05877e-35
-6.85518e-33
-1.84794e-30
-2.16723e-28
-7.34434e-27
-2.10294e-25
-1.84538e-24
-8.01967e-24
-8.32946e-24
-9.63808e-22
2.16319e-31
2.42718e-32
2.69704e-35
8.5002e-38
7.2605e-40
5.63422e-42
3.83441e-44
2.2712e-46
1.15784e-48
1.34646e-49
6.70694e-48
-1.15104e-43
-1.12332e-39
-3.13844e-36
-1.77463e-33
-4.34103e-31
-4.77185e-29
-1.6937e-27
-4.4094e-26
-3.59293e-25
-1.4171e-24
-1.37593e-24
-2.51136e-22
2.21977e-33
2.38265e-34
1.83962e-37
5.79205e-40
4.31906e-42
2.89666e-44
1.6616e-46
7.82084e-49
2.94005e-51
1.84152e-51
1.13924e-49
-5.13192e-44
-3.22198e-40
-7.2197e-37
-3.63849e-34
-8.17391e-32
-8.486e-30
-3.15552e-28
-7.45523e-27
-5.64748e-26
-2.012e-25
-1.69486e-25
-5.62009e-23
1.8632e-35
1.79799e-36
9.64725e-40
3.307e-42
2.12198e-44
1.1848e-46
5.43724e-49
1.92114e-51
4.64554e-54
8.22632e-54
8.00907e-52
-1.41205e-44
-6.45661e-41
-1.20944e-37
-5.53439e-35
-1.15548e-32
-1.14159e-30
-4.44666e-29
-9.52617e-28
-6.72382e-27
-2.15147e-26
-1.46703e-26
-1.23927e-23
1.34134e-37
9.4234e-39
3.87579e-42
1.60904e-44
8.71599e-47
3.91512e-49
1.33802e-51
3.20434e-54
3.99747e-57
1.70473e-59
4.03737e-57
-2.1971e-45
-8.0014e-42
-1.30628e-38
-5.53128e-36
-1.08721e-33
-1.03057e-31
-4.20291e-30
-8.16781e-29
-5.39562e-28
-1.54115e-27
-6.84798e-28
-2.44281e-24
4.94792e-40
2.48234e-41
8.9958e-45
3.93673e-47
1.7767e-49
6.33466e-52
1.56158e-54
2.27039e-57
9.6776e-61
1.90964e-67
0
-1.39574e-46
-4.51735e-43
-6.78044e-40
-2.71574e-37
-5.10677e-35
-4.68788e-33
-2.00013e-31
-3.53028e-30
-2.19957e-29
-5.56825e-29
-1.06471e-29
-2.44968e-25
0.1424
0.177517
0.178711
0.17862
6.30671e-09
7.54906e-15
0.00194724
3.71362e-12
9.43422e-15
5.22892e-15
9.44759e-15
3.46664e-13
4.16613e-12
3.12598e-15
6.21365e-15
1.05355e-13
2.6073e-16
9.76468e-16
5.56598e-14
5.66123e-13
1.86015e-16
3.13947e-16
6.66668e-15
2.622e-14
1.86015e-16
1.94071e-15
1.11773e-14
8.20155e-14
1.08323e-15
5.57611e-15
1.54343e-14
1.39029e-13
1.98926e-15
6.92205e-15
3.21428e-14
4.64566e-13
2.37453e-15
9.25656e-15
1.00608e-13
1.37525e-12
2.4508e-15
1.48065e-14
2.63997e-13
2.81323e-12
2.4067e-15
2.32999e-14
4.81071e-13
4.10797e-12
2.19681e-15
2.56807e-14
5.83401e-13
4.49658e-12
1.90349e-15
4.10292e-14
4.74761e-13
7.25624e-13
1.33585e-15
7.86923e-15
1.3851e-13
-4.9833e-12
6.10268e-16
1.14706e-14
8.32001e-13
3.68951e-11
1.38956e-15
1.04491e-13
4.70569e-12
9.39141e-12
2.61318e-16
1.30405e-14
1.25768e-12
8.36205e-13
1.17684e-18
6.79281e-17
2.87434e-14
3.83893e-14
-1.37875e-16
-2.3181e-16
1.54176e-16
1.83192e-15
-2.08239e-16
-4.87474e-16
-1.12669e-18
2.01834e-16
-2.04577e-16
-4.73553e-16
-5.13265e-16
-1.36234e-29
-1.56127e-16
-3.44689e-16
-4.14176e-16
-1.59187e-16
-9.77356e-17
-1.99505e-16
-2.26508e-16
5.11838e-15
-5.12633e-17
-9.24232e-17
-8.95087e-17
0
-2.26825e-17
-3.28241e-17
5.18002e-11
6.3898e-11
-8.64068e-18
-3.65785e-18
-4.47402e-29
4.56088e-10
-2.66865e-18
2.76487e-16
1.4407e-16
3.72068e-11
-1.15484e-19
3.56853e-14
4.16395e-12
2.10079e-12
1.38955e-18
7.17403e-14
2.56598e-13
4.22773e-13
1.21479e-18
5.51147e-14
1.91346e-13
1.04397e-12
-5.73001e-20
1.37171e-14
3.31387e-14
7.67516e-13
-2.55681e-19
8.38118e-16
1.79334e-15
1.07937e-13
-3.1878e-19
-3.97444e-18
-1.16827e-17
1.45186e-14
-2.97428e-19
-2.41296e-17
-4.43685e-17
-4.57161e-17
-2.05786e-19
-1.82649e-17
-2.9102e-17
-2.59789e-17
-1.12901e-19
-9.08173e-18
-1.19479e-17
-8.83147e-18
-5.09733e-20
-3.66839e-18
-3.7944e-18
-2.20236e-18
-1.8771e-20
-1.25339e-18
-9.80288e-19
-4.28388e-19
-5.2682e-21
-3.37841e-19
-1.901e-19
-5.97535e-20
-1.00025e-21
-6.29974e-20
-2.29706e-20
-4.75803e-21
-9.65835e-23
-5.9831e-21
-9.03219e-22
-7.25602e-23
0.0104611
3.04291e-09
8.6622e-09
8.81815e-08
9.30167e-07
1.03265e-05
0.000124639
0.0519352
0.105571
0.0187096
0.00292033
0.00342863
0.00186649
0.0112896
0.0271044
0.0182606
0.00171317
0.00260882
0.216268
8.24863e-12
1.37153e-10
3.04291e-09
4.53778e-08
6.04922e-07
6.38605e-06
0.000652973
0.0559922
0.102855
0.0155418
0.00291874
0.0179463
0.0016846
0.00767747
0.0271044
0.0269182
0.0017107
0.00273599
0.220399
3.71362e-12
7.8861e-11
1.84265e-09
3.35576e-08
4.99201e-07
5.80441e-06
0.00292106
0.0257573
0.0221474
0.0097419
0.00358793
0.0180153
0.00164901
0.00245893
0.0271044
0.0270598
0.0017658
0.00291483
0.220404
2.6215e-12
4.04892e-11
9.68328e-10
1.94612e-08
3.30717e-07
0.000147132
0.00295042
0.00012833
0.000316417
0.000499975
0.00326926
0.0180153
0.00118241
0.00218362
0.0270598
0.0268059
0.00262911
0.00302968
0.220404
4.95189e-12
1.93431e-11
2.55378e-10
5.35879e-09
1.00298e-07
0.000107925
0.00100047
4.30923e-05
5.23548e-05
9.72772e-05
0.00187982
0.0065791
0.000358746
0.0149484
0.0268061
0.026429
0.0200096
0.00301143
0.220378
1.48734e-12
7.22537e-12
1.01429e-10
2.27818e-09
1.4234e-06
3.20007e-05
1.59092e-05
1.22871e-05
1.64831e-05
5.07549e-05
0.00375286
0.000358742
0.000359131
0.0215096
0.0260178
0.0261146
0.0254376
0.00381373
0.220236
1.55338e-12
3.95469e-12
4.27448e-11
9.80274e-10
7.74533e-07
4.89864e-06
6.7514e-06
1.01673e-05
1.1983e-05
7.27709e-05
0.00402092
0.000752189
0.000359131
0.00197697
0.006741
0.0138132
0.0250759
0.00501373
0.219794
3.24115e-12
8.59841e-12
3.32004e-11
3.48815e-10
1.93163e-08
8.39973e-06
1.5623e-05
1.19701e-05
1.19672e-05
4.64928e-05
0.00400468
0.00115601
0.000335116
0.000221952
0.000136828
4.34546e-05
0.005944
0.0149138
0.09335
6.62272e-12
1.90145e-11
3.63328e-11
2.93356e-10
6.32184e-09
7.05308e-06
9.28562e-05
6.78223e-05
1.77415e-05
6.32217e-05
0.00230914
0.000733112
0.001679
0.00102427
4.8447e-05
4.34546e-05
4.09552e-05
0.0149124
0.013577
1.08275e-11
2.71764e-11
4.09518e-11
2.45446e-10
4.91929e-09
1.47513e-06
9.42219e-05
0.000164203
0.000102301
0.000113531
0.000140679
0.000240632
0.00914476
0.00878148
0.00128128
3.02403e-05
3.45344e-05
0.00406537
0.0205454
1.45733e-11
3.17716e-11
4.05417e-11
2.01466e-10
3.02153e-09
5.9972e-08
3.97365e-05
0.000174196
0.000206616
0.00018276
0.00170089
0.00308168
0.00946692
0.00940426
0.00203029
8.99038e-06
2.67783e-05
0.00142905
0.17715
1.5487e-11
2.96502e-11
3.2294e-11
4.8359e-10
1.66835e-09
1.7778e-08
4.2523e-06
5.98889e-05
9.52278e-05
9.69051e-05
0.000224786
0.0097414
0.00960416
0.00833051
0.000681224
8.82964e-07
8.99038e-06
0.00228366
0.195369
1.24576e-11
1.11922e-11
2.07896e-11
2.27069e-09
1.26604e-07
1.0035e-07
2.13547e-07
8.49827e-07
5.57048e-06
0.000124472
0.0065594
0.00989254
0.00949983
3.46501e-05
8.82962e-07
6.79687e-07
8.82963e-07
0.00292169
0.192663
7.45734e-13
1.85573e-12
2.11785e-11
5.0272e-10
8.88149e-09
6.99124e-06
1.10551e-05
5.57048e-06
1.03493e-05
0.000964569
0.0100437
0.00974129
0.00105627
6.93044e-07
6.79686e-07
6.77431e-07
3.63761e-05
0.00227082
0.230577
-2.15599e-11
-3.56842e-10
-4.38406e-11
0.000118164
0.000448357
7.5516e-06
3.7222e-05
2.82381e-05
0.000175783
0.00666688
0.0100437
0.000796807
6.93169e-07
6.79686e-07
6.77278e-07
6.77902e-07
8.28962e-05
0.00067711
0.248727
2.63048e-09
1.32181e-07
0.000332048
0.00175015
0.00175015
8.17464e-06
2.43098e-05
2.52935e-05
0.0020476
0.0117006
0.0029242
7.18449e-07
7.09583e-07
6.92054e-07
6.78568e-07
6.77426e-07
7.9319e-05
9.65091e-05
0.249448
5.25769e-10
4.15433e-08
0.000589563
0.00174547
0.00175035
0.000980082
2.71082e-05
4.14165e-05
0.000673
0.011788
1.0675e-06
7.64057e-07
7.18449e-07
7.04225e-07
6.86789e-07
6.78568e-07
5.11287e-05
5.2819e-05
0.249683
3.254e-11
3.5037e-09
0.000353732
0.00121155
0.000293752
0.0011225
6.4034e-05
5.31322e-05
0.00190382
0.00790249
2.08836e-06
2.18435e-06
9.41699e-07
7.64887e-07
7.27001e-07
6.86789e-07
8.09835e-05
0.000108551
0.249773
1.37213e-12
2.82443e-10
5.93046e-05
7.23049e-07
1.98699e-06
0.00112198
0.000544774
0.000142851
0.00596267
0.000624929
4.61637e-05
4.87425e-06
1.93018e-06
1.00769e-06
9.24778e-07
7.26991e-07
6.51692e-05
0.000369607
0.249782
1.39132e-13
1.95057e-11
4.01932e-09
4.41062e-07
1.01308e-05
0.000240744
0.000536661
0.000218283
0.00596178
0.00329447
0.000187504
1.89397e-06
1.33325e-06
1.64036e-06
3.91269e-06
9.24334e-07
2.68873e-05
0.000973119
0.249783
7.44563e-15
1.13376e-12
2.92125e-10
8.75385e-06
0.000166782
0.000100987
0.000257798
0.000110619
0.00199355
0.0014141
0.00036479
1.13761e-06
4.60806e-07
3.41096e-05
0.000103951
6.45744e-06
8.56803e-06
0.00220182
0.249782
3.22995e-16
5.53131e-14
1.64371e-11
0.000101686
0.000199911
9.95536e-05
6.85367e-05
8.13724e-05
0.000948005
0.000693329
3.80069e-05
4.60806e-07
1.93496e-07
9.96421e-05
0.00016158
6.07189e-05
1.08704e-05
0.00172513
0.167987
3.89726e-09
1.64371e-11
8.96389e-11
1.83819e-05
0.000170819
0.000163895
5.5286e-05
0.000698366
0.00102055
0.000381821
1.94154e-06
1.6243e-07
4.74563e-08
3.9419e-05
0.000164307
0.000153914
1.32421e-05
0.000661465
0.00627662
8.23971e-07
6.06359e-07
1.07336e-09
1.4354e-08
1.17676e-05
1.25864e-05
3.84751e-05
0.000569048
0.000513108
8.20498e-05
1.00989e-07
1.63899e-08
3.55899e-09
1.73618e-09
0.000163341
0.000172399
2.49806e-05
4.37422e-05
0.000123101
1.8741e-07
1.35204e-09
2.40801e-06
8.71012e-06
1.55539e-05
1.92798e-05
4.45134e-05
3.21027e-05
9.67221e-06
4.08733e-08
8.2626e-09
2.79569e-09
1.73618e-09
1.255e-09
4.82872e-05
0.000172399
4.4513e-05
3.77418e-05
5.52451e-05
6.51042e-11
1.04224e-09
1.35204e-09
2.16925e-05
2.70555e-05
2.70392e-05
2.17342e-05
4.10567e-06
6.30199e-08
6.46282e-09
8.49791e-09
8.38509e-09
1.5563e-09
9.74712e-10
1.255e-09
0.00016241
6.47385e-05
3.3005e-05
3.77418e-05
3.91394e-09
3.71727e-09
2.4505e-09
1.7816e-06
4.81056e-06
4.43941e-06
1.89863e-06
3.04966e-07
6.50316e-09
3.79219e-09
8.63665e-09
8.27212e-09
2.2203e-09
7.71966e-10
9.74712e-10
8.47552e-05
5.80424e-05
3.20581e-05
3.3005e-05
1.83573e-09
1.26195e-08
2.99572e-08
2.2537e-08
2.52714e-08
2.76219e-08
2.60779e-08
2.59311e-08
1.70688e-08
3.31983e-09
3.48411e-10
6.18612e-10
7.19527e-10
7.38034e-10
9.24381e-05
0.000106802
4.25962e-05
3.23724e-05
5.81974e-05
2.02952e-12
2.10657e-09
1.21486e-08
2.24102e-08
2.93393e-08
3.00622e-08
3.00496e-08
2.86338e-08
1.24194e-08
6.47057e-10
4.88065e-11
1.63766e-10
5.05113e-10
7.71966e-10
0.000195697
0.000262592
6.07543e-05
4.63653e-05
0.000238918
8.73853e-12
4.54579e-10
8.17049e-13
8.80542e-12
3.20471e-10
8.03046e-09
1.16053e-08
6.67395e-09
2.0192e-09
2.96514e-10
1.42466e-11
5.23938e-09
1.52741e-09
9.0332e-10
0.000227215
0.000262592
7.19499e-05
0.000219426
0.000249613
1.62833e-12
8.17049e-13
8.17049e-13
2.4349e-10
1.26073e-09
1.83359e-09
1.54225e-09
1.04555e-09
5.65666e-10
1.32266e-10
4.75958e-12
3.25763e-08
1.53712e-08
1.43886e-09
0.000114217
0.000262592
8.09375e-05
0.000249613
0.000251261
1.91084e-12
1.74142e-12
8.17049e-13
2.93902e-10
1.6076e-09
1.83088e-09
1.46936e-09
6.62194e-10
1.0386e-10
1.7108e-13
4.75556e-12
3.35716e-08
2.76596e-08
3.22551e-09
4.12712e-05
0.00025639
0.000172175
0.000251221
0.000250417
8.57161e-13
5.03036e-13
2.8301e-12
9.44201e-12
8.37213e-11
1.18118e-10
6.25507e-11
5.8882e-12
2.55253e-13
1.21608e-13
1.04386e-14
2.5958e-08
1.31779e-08
6.87768e-09
4.71484e-05
0.000249196
0.000240427
0.000246533
0.000194661
3.71021e-14
2.0944e-14
4.42584e-12
4.65824e-12
2.24479e-12
1.61915e-12
1.54415e-12
1.4397e-12
8.75624e-13
2.18138e-13
-1.42592e-22
-3.50854e-21
1.61149e-10
6.84614e-09
3.79885e-05
0.000229672
0.000224066
0.000203704
0.000153025
-2.82553e-17
-1.29861e-17
9.42378e-13
2.45554e-12
3.53631e-12
3.53631e-12
2.61984e-12
9.60685e-13
1.06844e-13
7.2226e-31
-3.95712e-15
-5.73547e-14
-2.28273e-19
1.02886e-08
2.7194e-05
3.62918e-05
6.13654e-05
8.92701e-05
0.000126711
-1.34164e-17
-5.15946e-18
6.69971e-15
4.05204e-13
1.45129e-12
8.73399e-13
2.29642e-13
1.93876e-14
1.24231e-16
0
-2.4864e-15
-2.94053e-14
7.96151e-08
3.18524e-08
2.87454e-05
0.000137793
8.3615e-05
0.000122669
0.0257369
-3.64639e-18
-1.14664e-18
3.15789e-15
1.83332e-13
1.41803e-13
6.26043e-14
1.09358e-14
1.9167e-16
0
-3.03664e-17
-3.09309e-15
-4.17838e-14
5.31101e-06
1.52639e-07
0.000130352
0.000184237
9.83723e-05
0.000165671
0.117935
-6.86104e-19
-1.72108e-19
5.95247e-16
1.86602e-14
1.38016e-14
4.1143e-15
3.02006e-16
9.69002e-20
-4.10604e-17
-3.66115e-17
-3.14115e-15
-4.96402e-14
7.59086e-06
5.30261e-07
0.000106359
0.000183952
0.000150711
0.000396407
0.120918
-9.65568e-20
-1.77569e-20
3.21454e-17
1.20674e-15
7.28654e-16
1.50853e-16
7.13151e-18
-2.09956e-36
-2.3916e-17
-1.43342e-17
-2.58913e-15
-4.80319e-14
7.73526e-06
4.47112e-06
5.63305e-06
0.000184653
0.000211763
0.000594815
0.121156
-9.42045e-21
-1.22925e-21
1.61407e-18
2.91496e-17
1.29919e-17
2.15994e-18
1.70982e-19
2.1576e-22
-8.53861e-18
-3.52006e-18
-1.63636e-15
-3.62831e-14
2.76102e-06
1.05779e-05
9.68648e-06
0.00018315
0.000151857
0.00125538
0.121156
-4.87943e-22
-4.43973e-23
-3.89396e-24
-3.35047e-25
2.93399e-21
1.52883e-20
4.0683e-21
9.91053e-23
-2.01697e-18
-4.97961e-19
-7.06757e-16
-1.96296e-14
-7.33009e-25
1.01821e-05
9.29015e-06
0.000169453
7.04829e-05
0.000852966
0.121156
-2.67779e-24
-5.46968e-25
-5.23286e-26
-3.11195e-27
-1.41313e-28
-5.4043e-30
2.88388e-29
4.88996e-30
-2.40173e-19
-2.32191e-20
-1.57023e-16
-5.45064e-15
0
1.41816e-06
1.59692e-05
3.14286e-05
4.09058e-05
6.43579e-05
0.0679242
)
;

boundaryField
{
    leftWall
    {
        type            zeroGradient;
    }
    rightWall
    {
        type            zeroGradient;
    }
    lowerWall
    {
        type            zeroGradient;
    }
    atmosphere
    {
        type            inletOutlet;
        inletValue      uniform 0;
        value           nonuniform List<scalar> 
46
(
4.94792e-40
2.48234e-41
8.9958e-45
3.93673e-47
1.7767e-49
6.33466e-52
1.56158e-54
2.27039e-57
0
0
0
0
0
0
0
0
0
0
0
0
0
0
0
0
0
0
0
0
0
0
0
0
0
0
0
0
0
0
0
0
0
0
3.14286e-05
4.09058e-05
6.43579e-05
0.0679242
)
;
    }
    defaultFaces
    {
        type            empty;
    }
}


// ************************************************************************* //
