/*--------------------------------*- C++ -*----------------------------------*\
| =========                 |                                                 |
| \\      /  F ield         | OpenFOAM: The Open Source CFD Toolbox           |
|  \\    /   O peration     | Version:  2206                                  |
|   \\  /    A nd           | Website:  www.openfoam.com                      |
|    \\/     M anipulation  |                                                 |
\*---------------------------------------------------------------------------*/
FoamFile
{
    version     2.0;
    format      ascii;
    arch        "LSB;label=32;scalar=64";
    class       surfaceScalarField;
    location    "0.775";
    object      alphaPhi0.water;
}
// * * * * * * * * * * * * * * * * * * * * * * * * * * * * * * * * * * * * * //

dimensions      [0 3 -1 0 0 0 0];

oriented        oriented;

internalField   nonuniform List<scalar> 
4432
(
-5.80745e-07
5.80745e-07
1.99974e-06
-2.58049e-06
5.19684e-06
-3.19711e-06
7.21539e-06
-2.01855e-06
8.06229e-06
-8.469e-07
8.17806e-06
-1.15775e-07
7.98634e-06
1.91724e-07
7.73688e-06
2.49462e-07
7.48946e-06
2.47423e-07
7.22077e-06
2.68684e-07
6.89008e-06
3.30693e-07
6.47366e-06
4.16433e-07
5.97897e-06
4.94688e-07
5.43832e-06
5.40655e-07
4.9013e-06
5.37017e-07
4.44401e-06
4.57285e-07
4.23643e-06
2.07584e-07
4.45143e-06
-2.15002e-07
5.4623e-06
-1.01089e-06
7.21671e-06
-1.75441e-06
1.0787e-05
-3.57025e-06
1.31937e-05
-2.40669e-06
1.25297e-05
-5.49142e-07
1.12989e-06
1.99021e-06
-5.11984e-06
4.75256e-06
-5.95946e-06
6.50038e-06
-3.76637e-06
7.23938e-06
-1.5859e-06
7.40875e-06
-2.85147e-07
7.41881e-06
1.81657e-07
7.43917e-06
2.29098e-07
7.50545e-06
1.81142e-07
7.60355e-06
1.70579e-07
7.72332e-06
2.10914e-07
7.86636e-06
2.73392e-07
8.03922e-06
3.21827e-07
8.26532e-06
3.14548e-07
8.5907e-06
2.11641e-07
9.10395e-06
-5.59668e-08
9.87258e-06
-5.61041e-07
1.111e-05
-1.45244e-06
1.28408e-05
-2.74167e-06
1.58346e-05
-4.74838e-06
1.85366e-05
-6.27226e-06
1.33812e-05
2.74872e-06
2.45233e-05
-2.61754e-07
1.39164e-06
1.92809e-06
-7.30968e-06
4.18602e-06
-8.21739e-06
5.69123e-06
-5.27158e-06
6.53018e-06
-2.42485e-06
7.02951e-06
-7.84473e-07
7.39086e-06
-1.79687e-07
7.67766e-06
-5.77044e-08
7.88584e-06
-2.70346e-08
7.97671e-06
7.97124e-08
7.95247e-06
2.3516e-07
7.8285e-06
3.97368e-07
7.62696e-06
5.23365e-07
7.36578e-06
5.75725e-07
7.06655e-06
5.10872e-07
6.74874e-06
2.61841e-07
6.37762e-06
-1.89929e-07
6.03421e-06
-1.10904e-06
5.71991e-06
-2.42737e-06
6.11959e-06
-5.14807e-06
5.03396e-06
-5.18663e-06
8.17348e-07
6.61235e-06
2.52235e-05
1.2476e-07
1.26688e-06
1.75426e-06
-8.93918e-06
3.60493e-06
-1.00681e-05
5.02e-06
-6.68665e-06
6.05654e-06
-3.46139e-06
6.93053e-06
-1.65846e-06
7.67258e-06
-9.21737e-07
8.26988e-06
-6.55016e-07
8.69334e-06
-4.5049e-07
8.92046e-06
-1.47415e-07
8.9471e-06
2.08521e-07
8.7329e-06
6.11567e-07
8.23934e-06
1.01693e-06
7.44377e-06
1.37129e-06
6.33583e-06
1.61881e-06
4.88968e-06
1.708e-06
3.09135e-06
1.6084e-06
6.68964e-07
1.31334e-06
-2.62209e-06
8.63689e-07
-7.36529e-06
-4.04867e-07
-1.18424e-05
-7.09552e-07
-9.52829e-06
5.41328e-06
1.55857e-05
-2.43199e-07
1.51008e-06
7.296e-07
-9.91198e-06
2.65085e-06
-1.19893e-05
4.51207e-06
-8.54787e-06
6.15027e-06
-5.0996e-06
7.68466e-06
-3.19285e-06
8.99602e-06
-2.2331e-06
9.94945e-06
-1.60844e-06
1.04895e-05
-9.90583e-07
1.06598e-05
-3.17688e-07
1.04995e-05
3.68853e-07
1.01171e-05
9.93899e-07
9.53506e-06
1.59902e-06
8.71271e-06
2.19364e-06
7.60324e-06
2.72828e-06
6.16037e-06
3.15086e-06
4.33557e-06
3.4332e-06
2.03582e-06
3.61309e-06
-9.61403e-07
3.86092e-06
-5.18665e-06
3.82038e-06
-8.86982e-06
2.97361e-06
-7.19041e-06
3.84803e-06
9.79683e-06
-8.09097e-07
2.31918e-06
-7.63467e-07
-9.95761e-06
1.58187e-06
-1.43342e-05
4.59561e-06
-1.15616e-05
7.00748e-06
-7.51146e-06
8.93032e-06
-5.11569e-06
1.05197e-05
-3.82244e-06
1.17683e-05
-2.85707e-06
1.26857e-05
-1.90803e-06
1.33341e-05
-9.66026e-07
1.36763e-05
2.66112e-08
1.36666e-05
1.00365e-06
1.30446e-05
2.22103e-06
1.16944e-05
3.54384e-06
9.62923e-06
4.79341e-06
7.02233e-06
5.75776e-06
4.12415e-06
6.33138e-06
1.22025e-06
6.51699e-06
-1.26422e-06
6.34539e-06
-2.47533e-06
5.03149e-06
-2.19206e-06
2.69035e-06
-3.0121e-07
1.95718e-06
9.49556e-06
1.77924e-06
5.39941e-07
1.71739e-06
-9.89576e-06
4.19278e-06
-1.68103e-05
8.46497e-06
-1.58338e-05
1.23425e-05
-1.13867e-05
1.53231e-05
-8.09628e-06
1.76831e-05
-6.18242e-06
1.90325e-05
-4.20651e-06
1.89083e-05
-1.78384e-06
1.74165e-05
5.25769e-07
1.55047e-05
1.93842e-06
1.36278e-05
2.88053e-06
1.17598e-05
4.08906e-06
9.43208e-06
5.87157e-06
6.46061e-06
7.76489e-06
3.01096e-06
9.2074e-06
-5.15419e-07
9.85776e-06
-3.32421e-06
9.32578e-06
-5.08728e-06
8.10847e-06
-4.64208e-06
4.58629e-06
-2.41864e-06
4.6691e-07
-6.39899e-08
-3.97825e-07
9.43116e-06
1.05337e-05
-9.99374e-06
1.64898e-05
-1.58519e-05
2.01224e-05
-2.04437e-05
2.36375e-05
-1.93827e-05
2.68009e-05
-1.45515e-05
2.8747e-05
-1.00423e-05
2.98899e-05
-7.32524e-06
3.0435e-05
-4.75159e-06
2.86453e-05
8.87189e-09
2.54235e-05
3.74754e-06
2.19824e-05
5.37957e-06
1.89376e-05
5.92528e-06
1.60031e-05
5.321e-06
1.29236e-05
5.81349e-06
1.06586e-05
6.08784e-06
8.79991e-06
6.2337e-06
6.89617e-06
6.19286e-06
5.42287e-06
5.31365e-06
4.95285e-06
3.74339e-06
5.06342e-06
1.5594e-06
1.98753e-06
1.40528e-06
-4.33831e-06
1.87598e-06
1.02935e-07
3.60094e-06
-3.59942e-06
-1.14716e-05
1.50741e-05
-1.42162e-05
1.13893e-05
-1.94319e-05
2.75125e-06
-8.6179e-06
-7.75825e-06
8.35165e-06
-1.40737e-05
2.24442e-05
-1.125e-05
3.12338e-05
-5.92472e-06
2.26703e-05
9.84198e-07
3.06163e-05
4.47369e-06
3.77852e-05
2.19438e-05
2.16343e-05
1.62898e-05
2.68337e-05
-5.06059e-06
4.52755e-05
-1.8303e-05
6.22953e-05
-1.68868e-05
5.34161e-05
5.57551e-06
3.16544e-05
2.0192e-05
5.81012e-06
2.5019e-05
5.77166e-06
-2.59265e-06
-1.00524e-06
-8.74742e-06
1.7817e-05
-2.97855e-06
4.29377e-06
-1.92728e-06
6.06255e-07
8.4759e-06
-2.19892e-05
1.82458e-05
-1.53566e-05
1.47023e-05
-2.50938e-06
8.62146e-06
-3.69384e-07
3.26591e-06
2.24243e-06
2.7695e-06
1.89028e-06
3.67361e-05
3.40394e-06
4.00352e-05
1.64189e-05
1.78545e-05
1.72589e-05
1.4579e-05
-1.09821e-05
3.36694e-06
-1.34555e-05
8.94671e-06
3.89889e-07
2.63508e-05
5.04421e-06
2.19385e-05
2.55056e-05
2.77091e-05
6.49818e-06
-7.55482e-06
1.45022e-06
9.56743e-06
1.35623e-06
3.29375e-06
4.08062e-06
-3.21215e-06
3.92414e-06
-1.72215e-05
2.60243e-06
-1.27194e-05
-4.57328e-07
1.64424e-07
-1.54952e-06
3.3685e-07
-8.38203e-07
4.62318e-07
-4.82473e-06
4.76923e-06
-1.83541e-05
1.14182e-05
-2.16219e-05
9.31474e-06
-5.26076e-06
1.3941e-06
2.74941e-07
-1.54588e-05
3.49826e-06
-1.54399e-05
5.28199e-06
-2.5907e-06
6.56349e-06
2.586e-06
1.79863e-05
5.91518e-06
4.61538e-05
7.27681e-06
-2.35437e-05
1.16999e-06
3.84079e-06
2.31218e-06
7.94914e-07
1.06953e-05
-1.30893e-05
1.13351e-05
-1.9498e-05
-6.26524e-07
-9.63791e-07
-3.67465e-06
2.92278e-06
-2.73275e-05
4.82188e-06
-2.39948e-05
2.84948e-06
-3.1822e-05
1.29555e-05
-1.59465e-05
7.9825e-06
-1.06376e-05
1.73673e-07
-4.56086e-06
-8.8911e-06
-3.76417e-07
-1.68866e-05
7.35178e-07
-1.44805e-05
4.71247e-06
-1.08748e-05
4.05481e-06
2.26956e-06
5.76259e-06
3.3993e-06
5.83937e-05
1.29595e-06
-1.98553e-05
-2.54867e-07
-3.46648e-07
8.995e-06
-1.12328e-05
1.80788e-05
-1.9688e-05
3.21344e-06
-6.41095e-06
-6.20087e-07
1.10995e-06
-1.15948e-05
6.68826e-06
-2.84509e-05
5.49365e-06
-2.82865e-05
8.76907e-06
-1.49385e-05
1.06104e-05
-9.47449e-06
2.51205e-06
-1.21938e-05
-1.10229e-06
-3.58437e-06
-1.58457e-05
-1.17985e-06
-1.74828e-05
-2.8727e-07
-1.27097e-05
4.26996e-06
-1.27676e-05
3.44613e-06
1.70259e-06
2.56078e-06
3.67484e-06
6.70398e-05
-1.14018e-06
-1.91022e-05
6.1373e-06
-2.02031e-05
1.97614e-05
-1.68199e-05
7.35259e-06
-4.36047e-06
-2.06596e-07
1.10862e-08
-4.91523e-07
6.47089e-07
-2.69594e-05
7.52552e-06
-2.29907e-05
4.95154e-06
-2.1255e-05
1.35318e-05
-5.26102e-06
4.74372e-06
-3.96837e-06
1.25657e-06
-5.93021e-06
-3.78294e-06
-1.89921e-06
-1.89235e-05
-2.80588e-06
-4.4003e-06
-2.74316e-06
-4.742e-06
1.4497e-07
-6.38903e-06
9.03128e-07
4.03936e-07
2.06125e-06
2.64231e-06
3.75265e-05
3.20035e-06
-2.48223e-05
6.71598e-06
-1.88423e-05
4.35881e-06
-4.65871e-07
3.0131e-13
-3.02397e-09
-7.45433e-09
1.63262e-09
1.97596e-07
2.2656e-07
-5.55274e-06
2.05201e-06
-1.86786e-05
1.58533e-06
-1.13718e-05
1.47623e-05
-1.7499e-06
4.40769e-06
-1.31335e-06
7.94747e-07
-2.64086e-06
-1.3531e-06
-1.43686e-06
-6.61473e-06
-2.3919e-06
-4.32208e-06
-1.54011e-06
-6.77444e-06
-1.81848e-06
-7.00988e-06
4.94553e-08
-8.3827e-07
4.71906e-07
2.3639e-06
1.70388e-05
3.68872e-06
-7.05985e-06
4.65287e-07
-1.48506e-11
-2.97852e-10
-2.31726e-10
-3.61673e-09
-1.0752e-10
-5.4163e-09
2.07993e-09
1.32734e-07
6.75656e-08
-4.47124e-07
3.70988e-07
-1.22012e-05
1.63779e-06
-5.88697e-06
1.71402e-05
-7.01866e-07
7.74134e-06
-6.35607e-07
6.48326e-07
-6.84833e-07
-1.19498e-06
-1.14131e-06
-1.45042e-06
-2.47451e-06
-3.761e-06
-1.61123e-06
-1.62191e-05
-2.73352e-06
-5.81803e-06
1.0303e-07
-2.74852e-07
4.44974e-07
2.02374e-06
4.5672e-05
8.8011e-06
-1.87941e-05
1.51696e-05
-2.22185e-05
1.74253e-05
-2.26973e-05
1.76519e-05
-1.96156e-05
1.74299e-05
-1.43283e-05
1.63598e-05
-8.62785e-06
1.545e-05
-5.50927e-06
1.38141e-05
-3.04574e-06
1.13035e-05
-8.57677e-08
9.7813e-06
1.09316e-06
9.29337e-06
6.12002e-07
8.55799e-06
1.75699e-07
7.06436e-06
7.62035e-08
6.35499e-06
-1.04021e-07
5.9627e-06
-3.25655e-08
5.59639e-06
-4.58945e-09
5.08248e-06
1.02932e-09
4.27902e-06
-1.43969e-08
2.97563e-06
-4.26788e-08
7.2698e-07
-5.89676e-08
-1.07374e-06
-3.70791e-08
-2.10046e-06
5.03977e-08
2.04503e-08
-3.95298e-06
7.58474e-06
-1.9584e-05
1.28048e-05
-1.77358e-05
1.40366e-05
-1.30921e-05
1.34671e-05
-9.05783e-06
1.27503e-05
-5.57275e-06
1.12284e-05
-1.29307e-06
9.07429e-06
-8.04538e-08
6.10574e-06
-2.62743e-09
3.83563e-06
-3.11743e-11
2.81086e-06
-4.6454e-13
1.94737e-06
-2.03548e-12
9.886e-07
-1.06534e-12
2.67226e-07
-1.91911e-12
1.40004e-07
3.43686e-11
1.03437e-07
1.79626e-10
9.53008e-08
1.05366e-10
9.3838e-08
7.49453e-11
7.77923e-08
6.31484e-11
3.51173e-08
-4.56054e-11
-2.48428e-08
-3.5279e-10
-6.72768e-08
4.66737e-10
-2.09823e-08
6.54856e-10
-5.10925e-10
-2.43902e-11
2.8211e-06
-1.26463e-12
2.89838e-06
-1.1051e-13
2.50588e-06
1.18791e-22
1.80572e-06
-9.65728e-21
1.37618e-06
-4.98643e-19
8.31125e-08
-1.21208e-17
2.65872e-09
-3.63057e-16
3.13052e-11
-9.94746e-15
1.76072e-13
-4.44385e-14
1.02808e-14
-1.16751e-13
2.79787e-14
-1.69363e-12
1.91032e-14
-6.79639e-13
-5.60198e-12
4.03325e-12
-1.14043e-10
1.29612e-11
-9.38582e-11
1.52608e-11
-1.02916e-10
7.46605e-12
-8.12512e-11
-6.51797e-12
-5.58533e-11
-1.51607e-11
-1.4926e-10
-1.43767e-11
-6.53064e-10
-3.55123e-12
-5.80306e-10
6.8891e-11
-3.01255e-12
8.61545e-12
-6.55741e-13
6.89209e-12
6.44363e-15
-1.26981e-12
2.18343e-23
-1.04066e-13
-2.53932e-22
1.72992e-21
-1.88064e-20
8.89514e-21
-5.36594e-19
1.91449e-20
-1.26575e-17
1.35841e-22
-3.75689e-16
-2.97101e-20
-1.03224e-14
-8.43173e-19
-5.47201e-14
-4.74402e-17
1.86291e-13
-1.76714e-15
-5.33881e-13
-8.35951e-14
-4.12143e-11
4.55475e-13
-3.7322e-11
-3.68568e-13
-2.82884e-11
2.10973e-13
-1.75682e-11
3.39001e-13
-1.01116e-11
-5.41048e-13
-1.24127e-11
-1.8446e-12
-2.86772e-11
-6.39214e-13
-4.41462e-11
-1.427e-12
-5.41252e-11
-1.37808e-12
-7.98778e-12
4.53945e-12
7.3047e-13
6.47226e-13
3.11143e-14
-1.39838e-14
-2.96275e-13
-2.0509e-12
5.81949e-21
-3.84149e-13
2.44913e-20
9.90911e-21
3.39916e-20
6.58432e-20
4.16108e-22
1.11942e-19
-1.5883e-21
3.61378e-21
-3.08475e-20
-4.50859e-22
-8.64853e-19
-1.32635e-20
-4.79367e-17
-4.9869e-19
-1.81151e-15
-1.00792e-17
-1.02242e-13
-1.2325e-16
-4.96262e-13
-1.55774e-14
-9.2593e-13
-1.31376e-14
-8.05891e-13
4.15579e-15
-5.81779e-13
6.64317e-15
-3.41249e-13
4.88085e-15
-3.92138e-13
-5.35812e-15
-1.07162e-12
-1.73473e-14
-2.55718e-12
-5.91723e-14
-4.23039e-12
-8.1443e-14
-6.34695e-13
1.87238e-13
-1.62291e-14
3.14438e-14
4.85322e-16
-9.24897e-18
-2.35433e-12
2.32489e-12
4.61927e-20
-1.63656e-14
1.04649e-19
-5.53198e-24
1.19981e-19
-3.05638e-22
4.73578e-21
-4.267e-22
-5.51126e-22
-4.67431e-24
-1.00421e-21
2.21629e-24
-2.22733e-20
-1.75146e-22
-1.75486e-18
-3.12063e-21
-7.03424e-17
-5.84491e-20
-2.02198e-16
2.03922e-18
-1.16716e-14
-2.27677e-17
-2.44771e-14
-3.52188e-16
-2.13e-14
3.52423e-18
-1.60019e-14
1.6616e-16
-1.01441e-14
2.17455e-16
-1.14122e-14
1.65815e-17
-3.05701e-14
-3.48949e-16
-9.33217e-14
-1.61522e-15
-1.85947e-13
-2.37469e-15
-3.10269e-14
6.13918e-15
-4.81435e-16
9.27455e-16
3.85579e-18
-6.91309e-20
-6.51645e-13
4.99801e-12
-4.69844e-22
1.48651e-13
-4.72935e-22
-2.44149e-24
-4.43098e-22
-1.0475e-22
-5.08945e-24
-5.18639e-24
2.85839e-24
9.3316e-24
-1.59826e-22
3.63727e-23
-4.16855e-22
8.18829e-23
-9.72561e-21
-1.76065e-23
-5.6034e-19
-3.87488e-22
-1.80378e-17
1.90057e-20
-9.55595e-17
1.6866e-18
-4.168e-16
2.18353e-18
-5.03377e-16
5.68292e-18
-4.31089e-16
1.07951e-17
-2.85961e-16
1.16508e-17
-3.14524e-16
1.11311e-17
-8.08341e-16
2.04851e-17
-2.74768e-15
1.86834e-17
-5.80545e-15
-4.78657e-17
-9.04651e-16
1.78318e-16
-3.74706e-18
2.64555e-17
5.34974e-20
-4.44517e-21
-3.37007e-13
5.39677e-13
-1.16585e-22
9.57604e-16
-1.1132e-22
-1.51979e-23
-1.44905e-23
-3.69297e-22
7.50153e-24
4.19345e-26
3.68832e-23
2.45415e-24
1.21627e-22
1.0237e-23
-2.05429e-23
2.63389e-23
-2.65454e-21
3.23673e-23
-7.7596e-21
1.33925e-24
-2.67233e-19
3.28097e-22
-2.15823e-18
1.07701e-20
-8.8341e-18
1.3622e-19
-1.69638e-17
3.85089e-19
-1.49065e-17
9.16008e-19
-1.06371e-17
8.25838e-19
-1.29602e-17
7.66014e-19
-3.2433e-17
2.37992e-18
-7.29014e-17
4.12062e-18
-1.55781e-16
5.4521e-18
-2.57331e-17
6.83109e-18
-3.3385e-20
7.18992e-19
2.28478e-20
-2.69503e-20
-9.36616e-16
5.69096e-16
-1.50679e-21
2.09896e-17
-3.49729e-22
-1.18738e-21
2.72982e-26
-4.24241e-22
1.74483e-24
-5.77925e-25
1.01767e-23
2.73218e-25
4.43739e-23
1.14351e-24
1.20587e-22
2.72284e-24
4.37098e-23
3.19221e-24
-1.52143e-21
-1.0395e-24
-3.51138e-21
6.32152e-24
-3.84393e-20
1.44988e-22
-1.85178e-19
1.40907e-21
-5.23602e-19
6.41839e-21
-4.97769e-19
1.56036e-20
-3.99537e-19
1.91812e-20
-5.67698e-19
1.93808e-20
-1.46779e-18
5.86277e-20
-3.03735e-18
1.40905e-19
-4.55037e-18
3.24755e-19
-6.7809e-19
2.4404e-19
-2.15533e-20
2.81953e-20
1.97335e-20
-3.773e-20
-2.78436e-17
7.06404e-16
-1.00079e-19
4.0326e-17
-6.30502e-22
1.33607e-20
-8.13777e-25
-5.47363e-23
1.85315e-25
-5.88645e-25
1.20898e-24
1.09005e-26
5.48453e-24
6.26778e-26
1.7096e-23
1.31901e-25
3.24777e-23
1.26598e-25
-2.01443e-23
-1.97502e-24
-5.3312e-23
3.75391e-24
-5.52996e-22
2.03499e-24
-3.26314e-21
1.9046e-23
-9.70779e-21
9.65458e-23
-1.09599e-20
2.39606e-22
-1.06219e-20
3.34144e-22
-1.50054e-20
4.5126e-22
-4.33132e-20
1.31429e-21
-1.08291e-19
3.82827e-21
-1.29676e-19
7.86523e-21
-2.15615e-20
9.45534e-21
-1.68501e-20
7.95922e-21
2.06414e-20
-3.59128e-20
-9.53547e-18
8.06018e-16
-1.36607e-19
4.87827e-17
-6.29802e-23
4.88697e-20
-6.33803e-25
-3.65589e-23
7.59402e-27
-3.16542e-25
7.44821e-26
-2.03117e-27
3.29227e-25
1.19556e-27
1.04789e-24
2.18396e-27
2.8241e-24
1.55856e-27
5.0628e-24
-2.34048e-25
-4.4202e-24
-9.70782e-25
-8.15341e-24
1.26119e-24
-4.7764e-23
2.65989e-25
-1.562e-22
1.39352e-24
-2.02709e-22
4.6373e-24
-2.31605e-22
9.2407e-24
-4.15462e-22
2.03293e-23
-1.26942e-21
6.956e-23
-3.18631e-21
2.31228e-22
-5.40423e-21
6.71448e-22
-5.75651e-21
1.95822e-21
-1.00273e-20
6.2954e-21
2.06616e-20
-2.32658e-20
-9.40182e-18
5.35916e-16
-1.22074e-19
4.97187e-17
-4.41114e-23
5.6237e-20
-2.34202e-25
-1.79722e-23
-4.33819e-27
-1.03226e-25
1.63359e-27
-9.69189e-28
6.8487e-27
-2.02774e-29
2.20454e-26
-8.84501e-30
9.58637e-26
-6.1748e-30
3.76116e-25
-9.11148e-27
4.82825e-25
-7.2689e-26
-4.65032e-25
-1.37587e-25
-6.31521e-25
1.7662e-25
-2.45071e-24
4.14186e-26
-5.23342e-24
2.92221e-25
-9.77523e-24
1.06115e-24
-2.62738e-23
4.18114e-24
-8.54441e-23
1.74264e-23
-2.56195e-22
6.8153e-23
-7.64506e-22
2.69852e-22
-2.4731e-21
1.17036e-21
-7.24332e-21
5.17065e-21
1.78435e-20
-1.76345e-20
-1.03839e-17
3.62878e-16
-8.14489e-20
4.81247e-17
-1.9926e-23
3.47459e-20
-7.99708e-26
-6.35189e-24
-1.04248e-27
-3.44696e-26
-3.23719e-29
-3.03509e-28
-3.46647e-29
-3.60161e-30
-1.73539e-28
-5.52304e-31
4.00643e-28
-5.80673e-32
8.46357e-27
-3.999e-29
2.75402e-26
-1.63837e-27
5.54897e-27
-7.95726e-27
-7.58392e-26
-2.17752e-27
-1.44656e-25
1.18434e-26
-5.20892e-25
7.201e-26
-1.7005e-24
3.32504e-25
-6.38291e-24
1.66219e-24
-2.32055e-23
7.70915e-24
-8.19675e-23
3.3096e-23
-3.19898e-22
1.49064e-22
-1.37782e-21
7.43166e-22
-4.59324e-21
3.54307e-21
1.38376e-20
-1.21671e-20
-1.11819e-17
3.84741e-16
-4.98111e-20
4.93703e-17
-7.33658e-24
2.38728e-20
-2.96177e-26
-1.81592e-24
-3.59331e-28
-1.26732e-26
-6.3818e-30
-9.12606e-29
-1.48758e-30
-8.25487e-31
-1.87713e-30
-8.72031e-32
-1.48754e-29
-4.5656e-33
-3.28977e-29
2.17525e-30
-1.42774e-30
6.40251e-30
-2.62745e-27
3.33335e-30
-6.07187e-27
1.07783e-27
-3.00791e-26
4.95537e-27
-1.17921e-25
2.0461e-26
-4.82257e-25
1.12591e-25
-1.99472e-24
5.91196e-25
-7.63244e-24
2.85811e-24
-2.94304e-23
1.32758e-23
-1.35327e-22
6.81257e-23
-6.94652e-22
4.03959e-22
-2.58274e-21
2.24573e-21
1.02366e-20
-7.01745e-21
-1.13524e-17
4.70266e-16
-3.43341e-20
5.27303e-17
-2.57778e-24
1.89809e-20
-1.37927e-26
-8.01437e-25
-1.31202e-28
-9.07029e-27
-1.87781e-30
-4.65402e-29
-2.80127e-31
-2.50013e-31
-3.00516e-31
-1.44865e-32
-8.27139e-31
-1.06999e-33
-5.84325e-30
8.08122e-32
-3.86522e-29
3.56586e-30
-2.64092e-28
4.43807e-29
-1.37281e-27
1.66643e-28
-6.01631e-27
8.12766e-28
-2.70469e-26
4.90964e-27
-1.19969e-25
2.89065e-26
-5.07998e-25
1.52805e-25
-2.02681e-24
7.8042e-25
-8.70908e-24
4.10636e-24
-4.81977e-23
2.57002e-23
-2.98952e-22
1.92335e-22
-1.27292e-21
1.32923e-21
8.14421e-21
-4.77476e-21
-1.05255e-17
6.86908e-16
-2.15936e-20
5.62705e-17
-1.51614e-24
1.31167e-20
-1.10813e-26
-7.60267e-25
-8.42987e-29
-9.08788e-27
-7.87273e-31
-4.47392e-29
-4.70833e-32
-1.69452e-31
-4.78261e-32
-2.51684e-33
-9.30141e-32
-3.38094e-34
-6.32353e-31
6.92899e-33
-4.97473e-30
1.33239e-31
-3.413e-29
1.78679e-30
-1.96686e-28
1.69238e-29
-1.07806e-27
1.39059e-28
-5.37842e-27
1.03339e-27
-2.38829e-26
6.12035e-27
-1.02482e-25
3.29416e-26
-4.37357e-25
1.84887e-25
-2.12935e-24
1.13882e-24
-1.40917e-23
8.85626e-24
-1.02291e-22
8.49643e-23
-5.75114e-22
7.37308e-22
8.02581e-21
1.93033e-21
-8.52652e-18
9.37152e-16
-1.06889e-20
5.90923e-17
-1.36244e-24
6.6472e-21
-1.22771e-26
-8.94163e-25
-8.11372e-29
-1.32491e-26
-6.00716e-31
-5.63207e-29
-1.0546e-32
-1.82178e-31
-6.32658e-33
-9.60288e-34
-9.48752e-33
-9.51842e-35
-6.77771e-32
5.68207e-34
-5.56938e-31
1.55933e-32
-4.229e-30
2.33676e-31
-2.78628e-29
2.67294e-30
-1.77006e-28
2.45699e-29
-9.10092e-28
1.96804e-28
-3.98737e-27
1.17435e-27
-1.7469e-26
6.68225e-27
-7.87106e-26
4.1261e-26
-4.34719e-25
2.95515e-25
-3.67405e-24
3.17515e-24
-3.03776e-23
3.97865e-23
-1.69645e-22
3.55618e-22
3.40169e-21
-8.6727e-23
-5.49122e-18
1.01329e-15
-4.32276e-21
5.73025e-17
-2.05439e-24
3.25926e-21
-2.1749e-26
-1.70832e-24
-1.24892e-28
-2.83073e-26
-7.05698e-31
-1.04673e-28
-6.37626e-33
-2.71996e-31
-8.47972e-34
-1.0673e-33
-1.10017e-33
-4.77146e-35
-6.86642e-33
3.45399e-35
-6.09419e-32
1.74827e-33
-5.05499e-31
3.1604e-32
-3.62069e-30
4.00668e-31
-2.56144e-29
3.99708e-30
-1.3019e-28
3.45864e-29
-5.74782e-28
2.09954e-28
-2.50138e-27
1.32037e-27
-1.06952e-26
8.42755e-27
-7.55919e-26
7.416e-26
-9.89138e-25
1.8247e-24
-5.6057e-24
1.98946e-23
-5.19121e-23
1.05253e-22
1.3175e-21
-7.27348e-23
-1.03392e-18
1.05287e-15
-2.12481e-21
5.06149e-17
-3.95546e-24
3.12241e-21
-4.33682e-26
-4.15645e-24
-2.21139e-28
-7.62026e-26
-1.01247e-30
-2.64089e-28
-5.90148e-33
-5.72584e-31
-2.39034e-34
-1.59577e-33
-2.36591e-34
-2.51627e-35
-6.72687e-34
-7.30547e-37
-6.11923e-33
1.85461e-34
-5.44149e-32
4.02294e-33
-4.12994e-31
5.64597e-32
-3.11697e-30
6.09077e-31
-1.51284e-29
5.6135e-30
-6.93735e-29
3.55746e-29
-2.5169e-28
2.59582e-28
-8.2751e-28
1.38065e-27
-1.80195e-26
3.32278e-26
-1.04691e-25
1.6725e-24
7.24726e-25
1.36223e-23
2.63468e-24
2.45093e-23
4.01893e-22
5.08423e-23
6.96697e-18
1.00149e-15
-1.58572e-21
5.25067e-17
-7.5197e-24
6.27902e-21
-8.66036e-26
-9.90533e-24
-4.53409e-28
-2.1144e-25
-1.88748e-30
-8.82034e-28
-9.82849e-33
-1.96308e-30
-1.23478e-34
-5.09609e-33
-4.81721e-35
-3.14771e-35
-6.62754e-35
-1.48833e-36
-5.33229e-34
1.88832e-35
-4.94271e-33
4.9041e-34
-3.83458e-32
7.57672e-33
-2.80456e-31
8.78584e-32
-1.18486e-30
8.34043e-31
-6.07409e-30
6.14544e-30
-6.10271e-30
5.76012e-29
4.19104e-29
9.97506e-29
3.15015e-27
2.12639e-26
4.00145e-25
2.42443e-24
-3.84917e-25
-1.76269e-24
-3.37275e-23
-1.25808e-22
-6.9297e-22
-2.19045e-22
2.3525e-17
7.50004e-16
-6.17766e-22
5.52904e-17
-8.38803e-24
3.0122e-20
-1.10582e-25
-2.93174e-23
-7.30416e-28
-5.41812e-25
-3.57886e-30
-2.32805e-27
-1.90406e-32
-6.47797e-30
-1.04331e-34
-2.10807e-32
-7.63945e-36
-8.10098e-35
-7.75071e-36
-1.43024e-36
-3.45164e-35
2.11044e-36
-3.01117e-34
5.73194e-35
-2.05676e-33
9.71198e-34
-8.12618e-33
1.21011e-32
1.48395e-32
1.11822e-31
6.84e-31
1.87012e-30
6.67967e-30
9.94951e-30
2.48275e-30
1.43315e-29
2.64696e-27
4.38613e-27
6.70154e-25
1.5302e-24
-7.30333e-24
-1.75046e-23
-1.1103e-22
-2.36764e-22
-1.25762e-21
-6.5608e-22
2.36726e-17
3.83807e-16
1.70894e-19
4.17688e-17
3.22785e-23
1.09742e-19
2.74949e-26
-1.76716e-22
-4.07082e-29
-1.73189e-24
-1.57475e-30
-6.23259e-27
-1.25466e-32
-1.75352e-29
-8.265e-35
-5.64015e-32
-1.03065e-36
-2.58993e-34
-3.66315e-37
-1.50389e-36
2.45011e-38
3.18765e-37
8.74041e-36
6.51659e-36
2.08618e-34
1.1936e-34
3.18187e-33
1.59873e-33
3.45964e-32
1.38946e-32
5.85397e-31
8.71967e-31
3.42409e-31
7.70126e-31
-1.25816e-28
-2.54411e-28
-4.1535e-27
-7.62389e-27
1.19331e-25
2.00307e-25
-1.68524e-23
-2.60065e-23
-1.78987e-22
-2.54888e-22
-1.23507e-21
-9.39174e-22
1.29461e-17
1.19011e-16
2.84371e-19
1.8485e-17
3.55218e-22
1.17062e-19
1.2134e-24
-1.58255e-22
5.6751e-27
-3.87579e-24
2.37296e-29
-2.50405e-26
9.45708e-32
-9.09977e-29
5.66999e-34
-2.51087e-31
5.22694e-36
-8.47422e-34
6.23795e-37
-2.44617e-36
6.72186e-37
9.46262e-38
6.79269e-36
7.86284e-37
9.25628e-35
1.40008e-35
1.06842e-33
1.98464e-34
9.27775e-33
1.75353e-33
3.32655e-31
1.96252e-31
-7.0523e-30
-9.35263e-30
-2.83103e-28
-3.59738e-28
-1.19651e-26
-1.44538e-26
-4.47706e-25
-5.11676e-25
-2.2636e-23
-2.43948e-23
-1.98469e-22
-2.0124e-22
-8.93993e-22
-9.40592e-22
3.89267e-18
2.16983e-17
1.94747e-19
4.44959e-18
6.13325e-22
4.70209e-20
3.7122e-24
-8.33455e-23
2.7875e-26
-2.56585e-24
1.62617e-28
-1.95988e-26
8.16888e-31
-8.31343e-29
4.35814e-33
-4.05981e-31
2.73999e-35
-2.0264e-33
7.98272e-37
-6.98123e-36
7.35606e-37
4.26224e-38
1.29255e-36
1.02389e-37
2.01175e-35
1.55546e-36
2.27477e-34
2.26226e-35
1.95899e-33
2.60884e-34
8.63542e-32
1.55699e-32
-1.33322e-29
-1.16875e-29
-3.97571e-28
-3.44437e-28
-1.9638e-26
-1.65623e-26
-7.53927e-25
-6.12602e-25
-2.20203e-23
-1.71052e-23
-1.69706e-22
-1.25366e-22
-5.13148e-22
-7.35089e-22
6.83781e-19
2.68142e-18
6.30188e-20
6.23515e-19
3.2202e-22
7.25805e-21
2.76203e-24
-1.77251e-23
2.90447e-26
-6.66801e-25
2.37728e-28
-6.4427e-27
1.64785e-30
-3.80337e-29
1.12143e-32
-2.25678e-31
8.00108e-35
-1.33566e-33
7.68785e-37
-5.19928e-36
1.99099e-37
1.50831e-38
2.07273e-37
1.15942e-38
3.50866e-36
1.64331e-37
3.94957e-35
2.32512e-36
4.86554e-34
7.68369e-35
3.34456e-33
1.95866e-33
-1.60325e-29
-9.69141e-30
-4.35275e-28
-2.6432e-28
-2.39158e-26
-1.43161e-26
-7.79818e-25
-4.53951e-25
-1.71093e-23
-9.58692e-24
-1.18491e-22
-6.34109e-23
-2.38367e-22
-4.7025e-22
8.54542e-20
2.7764e-19
1.12924e-20
6.23494e-20
7.58791e-23
7.06126e-22
8.46666e-25
-2.37183e-24
1.09731e-26
-9.02821e-26
1.10844e-28
-9.09852e-28
9.64813e-31
-5.9843e-30
8.19056e-33
-4.41732e-32
7.03747e-35
-3.24505e-34
6.47689e-37
-1.50177e-36
3.71601e-38
7.37732e-39
3.57023e-38
1.29177e-39
5.38693e-37
1.60977e-38
6.01962e-36
2.36331e-37
1.4595e-34
2.71074e-35
-1.22852e-32
-4.90989e-33
-1.52191e-29
-6.34175e-30
-4.00932e-28
-1.69083e-28
-2.32994e-26
-9.73368e-27
-6.42905e-25
-2.61861e-25
-1.12779e-23
-4.4222e-24
-7.01927e-23
-2.62311e-23
-8.94975e-23
-2.53938e-22
9.41811e-21
2.63064e-20
1.39324e-21
5.15957e-21
1.10815e-23
5.34171e-23
1.46216e-25
-2.22768e-25
2.12641e-27
-7.49363e-27
2.44518e-29
-6.88756e-29
2.47667e-31
-4.53255e-31
2.45572e-33
-3.93651e-33
2.43023e-35
-3.31542e-35
2.47176e-37
-1.60408e-37
6.89025e-39
1.30291e-39
5.827e-39
1.35024e-40
7.45519e-38
1.3896e-39
9.61025e-37
4.05217e-38
2.20719e-35
5.31579e-36
-1.93065e-32
-5.07821e-33
-1.22518e-29
-3.36477e-30
-3.21795e-28
-8.93747e-29
-1.90209e-26
-5.21623e-27
-4.53492e-25
-1.2053e-25
-6.58874e-24
-1.67041e-24
-3.6849e-23
-8.79012e-24
-2.69043e-23
-1.21578e-22
1.00142e-21
2.23364e-21
1.3353e-22
3.56985e-22
1.14017e-24
3.14007e-24
1.64382e-26
-1.42661e-26
2.49851e-28
-3.77214e-28
3.07648e-30
-2.60589e-30
3.43425e-32
-1.42914e-32
3.76888e-34
-1.52907e-34
4.09683e-36
-1.46014e-36
4.50936e-38
-6.22017e-39
1.03172e-39
1.14399e-40
8.09452e-40
1.01732e-41
9.38832e-39
9.96355e-41
1.75971e-37
8.95932e-39
-3.4616e-36
-4.92927e-37
-1.96181e-32
-3.02402e-33
-8.63122e-30
-1.37368e-30
-2.29362e-28
-3.63699e-29
-1.34002e-26
-2.057e-27
-2.81265e-25
-4.07681e-26
-3.4731e-24
-4.64041e-25
-1.74357e-23
-2.0951e-24
-5.60961e-24
-5.33751e-23
9.98979e-23
1.63688e-22
1.00211e-23
1.9973e-23
8.48782e-26
1.40562e-25
1.25917e-27
-5.5051e-28
1.8975e-29
-9.52084e-30
2.39469e-31
-1.18964e-32
2.82714e-33
2.76843e-34
3.28921e-35
3.67442e-37
3.77578e-37
-7.64211e-39
4.36574e-39
8.1452e-41
1.07706e-40
5.11913e-42
8.55107e-41
4.509e-43
1.10367e-39
5.48537e-42
3.60329e-38
4.6659e-40
-9.46946e-36
-5.63445e-37
-1.59234e-32
-9.75939e-34
-5.4082e-30
-3.21248e-31
-1.46764e-28
-7.97476e-30
-8.30127e-27
-3.8707e-28
-1.5571e-25
-5.72288e-27
-1.66751e-24
-4.18634e-26
-7.44593e-24
-8.95101e-26
1.78749e-26
-2.1872e-23
8.66927e-24
1.009e-23
5.73095e-25
8.83812e-25
4.54127e-27
4.835e-27
6.59515e-29
-7.92038e-30
9.47987e-31
3.03863e-32
1.19071e-32
3.87679e-33
1.44575e-34
4.41762e-35
1.71599e-36
3.23293e-37
2.01408e-38
2.21736e-39
2.38508e-40
1.5497e-41
8.44708e-42
9.83576e-44
7.33297e-42
3.11015e-45
1.40085e-40
-8.86434e-44
2.64305e-39
1.22225e-41
-1.05056e-35
1.28991e-37
-1.09568e-32
1.49212e-34
-3.03899e-30
4.88597e-32
-8.47617e-29
1.86059e-30
-4.57318e-27
1.20428e-28
-7.75523e-26
2.29826e-27
-7.32892e-25
2.33842e-26
-2.85311e-24
8.98918e-26
3.79331e-25
-8.66174e-24
6.18983e-25
5.14474e-25
2.45259e-26
3.06673e-26
1.74109e-28
1.33741e-28
2.36717e-30
3.59046e-31
3.23344e-32
1.20672e-32
4.16872e-34
1.99305e-34
5.10611e-36
1.93194e-36
6.05633e-38
1.52253e-38
7.08829e-40
1.06725e-40
8.37781e-42
5.58472e-43
5.1094e-43
-4.34781e-46
6.37382e-43
-2.108e-45
1.87465e-41
-2.09641e-43
-1.42892e-39
1.53675e-40
-8.54562e-36
4.98233e-37
-6.5437e-33
3.60738e-34
-1.53752e-30
8.52588e-32
-4.4302e-29
2.88332e-30
-2.25617e-27
1.53205e-28
-3.49146e-26
2.40008e-27
-2.95213e-25
2.00223e-26
-9.61865e-25
5.46603e-26
3.33067e-25
-3.50624e-24
3.54334e-26
2.14541e-26
7.88798e-28
8.35336e-28
4.92e-30
3.19818e-30
6.42724e-32
2.52963e-32
8.74521e-34
4.95767e-34
1.11459e-35
6.04843e-36
1.34345e-37
5.4486e-38
1.5599e-39
4.23517e-40
1.78157e-41
2.77438e-42
2.06282e-43
1.08759e-44
2.57105e-44
-7.63471e-47
5.66611e-44
-3.57777e-46
2.29787e-42
-2.77397e-44
-2.20436e-39
2.53015e-40
-5.65568e-36
5.17015e-37
-3.42336e-33
3.00525e-34
-6.99279e-31
6.13819e-32
-2.08892e-29
2.10499e-30
-9.95419e-28
1.01386e-28
-1.41395e-26
1.42871e-27
-1.0788e-25
1.05649e-26
-2.71167e-25
1.86784e-26
2.42992e-25
-1.53179e-24
1.61039e-27
7.26354e-28
1.94447e-29
1.80949e-29
1.06568e-31
6.81839e-32
1.37333e-33
8.0592e-34
1.83615e-35
1.20976e-35
2.27875e-37
1.26439e-37
2.65542e-39
1.07233e-39
2.96541e-41
7.89833e-42
3.23543e-43
4.62133e-44
3.69939e-45
1.15971e-46
1.66942e-45
-2.94203e-48
4.58304e-45
-7.79787e-47
1.15651e-43
8.60004e-45
-1.8827e-39
2.46059e-40
-3.14329e-36
3.67597e-37
-1.56933e-33
1.79259e-34
-2.84174e-31
3.26129e-32
-8.82538e-30
1.15346e-30
-3.90705e-28
5.0787e-29
-5.11478e-27
6.54576e-28
-3.54204e-26
4.36322e-27
-5.90034e-26
3.81107e-27
1.60892e-25
-7.27216e-25
5.80854e-29
1.98629e-29
3.83969e-31
3.18422e-31
1.81463e-33
1.29286e-33
2.30731e-35
1.69492e-35
3.00284e-37
2.08854e-37
3.57831e-39
1.95529e-39
3.96843e-41
1.55091e-41
4.18228e-43
1.04798e-43
4.25335e-45
5.23154e-46
5.43388e-47
4.63296e-49
3.41877e-47
-1.15863e-49
4.13025e-46
-8.27346e-48
-5.42819e-44
1.52208e-44
-1.19331e-39
1.73312e-40
-1.47975e-36
2.03197e-37
-6.27326e-34
8.53211e-35
-1.02267e-31
1.40617e-32
-3.30919e-30
5.16126e-31
-1.3529e-28
2.07624e-29
-1.63665e-27
2.46305e-28
-1.03228e-26
1.48894e-27
-8.58434e-27
4.8296e-28
9.20255e-26
-3.46833e-25
1.66382e-30
4.36872e-31
6.28149e-33
4.67564e-33
2.48355e-35
2.11463e-35
3.10943e-37
2.63366e-37
3.87747e-39
2.75821e-39
4.35938e-41
2.34475e-41
4.51768e-43
1.7051e-43
4.39199e-45
1.02265e-45
4.04135e-47
4.11315e-48
9.2328e-49
-3.46785e-51
7.75091e-49
-6.30896e-51
2.75032e-47
-2.36322e-49
-6.70592e-44
1.36096e-44
-5.97965e-40
9.40724e-41
-5.88395e-37
9.04726e-38
-2.16456e-34
3.33439e-35
-3.21683e-32
5.03978e-33
-1.08645e-30
1.92592e-31
-4.08081e-29
7.06107e-30
-4.56935e-28
7.73393e-29
-2.62849e-27
4.24751e-28
-8.16369e-28
2.09448e-28
4.29592e-26
-1.49705e-25
3.78675e-32
7.6978e-33
8.66023e-35
5.88608e-35
2.79407e-37
2.91742e-37
3.39685e-39
3.1995e-39
3.96272e-41
2.90868e-41
4.12692e-43
2.22311e-43
3.91636e-45
1.44479e-45
3.41699e-47
7.43436e-48
2.76203e-49
2.23251e-50
1.73351e-50
-6.30082e-53
2.32603e-50
-4.85961e-52
2.10593e-50
2.84562e-49
-4.36388e-44
8.26429e-45
-2.3987e-40
4.00175e-41
-1.95315e-37
3.25867e-38
-6.34343e-35
1.07081e-35
-8.68399e-33
1.49922e-33
-3.06517e-31
5.97701e-32
-1.053e-29
1.99197e-30
-1.09233e-28
2.01817e-29
-5.72794e-28
1.00626e-28
-2.71357e-28
1.19303e-28
1.56912e-26
-5.37374e-26
6.83569e-34
1.08299e-34
9.95369e-37
6.47827e-37
2.59855e-39
3.36216e-39
2.99882e-41
3.13313e-41
3.2199e-43
2.49019e-43
3.03616e-45
1.69951e-45
2.5706e-47
9.52075e-48
1.94559e-49
4.04841e-50
1.35183e-51
8.17413e-53
6.88187e-52
-5.19062e-55
1.38894e-51
-1.77322e-53
-9.22293e-49
2.61184e-49
-1.95593e-44
3.61763e-45
-7.62653e-41
1.32381e-41
-5.29548e-38
9.36133e-39
-1.54041e-35
2.78072e-36
-1.95974e-33
3.63829e-34
-7.23512e-32
1.51534e-32
-2.26442e-30
4.58087e-31
-2.17729e-29
4.29966e-30
-1.03853e-28
1.94122e-29