/*--------------------------------*- C++ -*----------------------------------*\
| =========                 |                                                 |
| \\      /  F ield         | OpenFOAM: The Open Source CFD Toolbox           |
|  \\    /   O peration     | Version:  2206                                  |
|   \\  /    A nd           | Website:  www.openfoam.com                      |
|    \\/     M anipulation  |                                                 |
\*---------------------------------------------------------------------------*/
FoamFile
{
    version     2.0;
    format      ascii;
    arch        "LSB;label=32;scalar=64";
    class       volScalarField;
    location    "0.775";
    object      p;
}
// * * * * * * * * * * * * * * * * * * * * * * * * * * * * * * * * * * * * * //

dimensions      [1 -1 -2 0 0 0 0];

internalField   nonuniform List<scalar> 
2268
(
1435.42
1434.89
1433.73
1431.81
1429.36
1426.5
1423.28
1419.73
1415.9
1411.87
1407.7
1403.44
1399.15
1394.91
1390.77
1386.8
1383.11
1379.77
1376.93
1374.61
1373.29
1373.13
1373.3
1258.2
1257.56
1256.35
1254.31
1251.76
1248.75
1245.31
1241.54
1237.5
1233.25
1228.86
1224.37
1219.85
1215.36
1210.94
1206.63
1202.55
1198.6
1194.95
1191.24
1187.88
1184.02
1186.1
1082.91
1082.16
1080.83
1078.65
1075.92
1072.66
1068.95
1064.82
1060.38
1055.69
1050.76
1045.75
1040.74
1035.8
1031
1026.38
1021.89
1017.43
1013.1
1007.96
1002.64
993.687
996.966
910.026
909.206
907.59
905.092
901.951
898.142
893.744
888.845
883.547
877.968
872.286
866.6
860.955
855.421
850.074
844.977
840.175
835.714
831.611
827.506
822.511
819.253
821.808
740.459
739.152
737.138
734.156
730.396
725.748
720.359
714.395
708.026
701.416
694.729
687.982
681.318
674.839
668.639
662.799
657.395
652.529
648.348
644.794
642.588
642.001
641.797
573.362
571.589
569.642
566.333
561.781
555.843
548.889
541.2
533.049
524.724
516.355
508.155
500.065
492.191
484.704
477.699
471.173
465.07
459.33
454.089
449.49
446.215
443.026
409.785
407.171
405.065
401.94
396.378
388.506
379.452
369.668
359.256
348.732
338.469
328.446
318.757
309.381
300.525
292.229
284.346
276.838
269.209
261.387
253.145
248.363
237.233
254.165
251.109
245.853
240.3
232.142
221.267
208.804
195.373
181.859
169.694
158.107
146.546
135.078
124.783
116.319
109.58
103.914
98.6728
92.6905
85.3959
77.1787
68.1966
57.3939
171.785
159.087
103.662
86.5376
113.244
154.726
156.462
134.577
120.787
133.419
183.152
240.35
283.927
306.804
292.824
234.943
251.399
295.72
306.411
111.383
90.5869
57.9732
40.5028
55.8002
88.5409
79.5445
72.0983
82.5136
100.572
121.22
166.433
253.454
289.663
205.794
175.414
170.62
205.681
246.45
84.2181
62.8412
47.1603
42.7626
46.477
69.7007
69.6822
69.6803
73.1012
81.6625
92.8132
153.848
209.042
213.553
165.648
145.698
133.15
129.887
193.992
67.7465
46.8667
48.9257
43.2641
42.6508
59.2745
64.5443
67.6226
72.5566
70.094
77.1711
109.819
142.616
150.459
125.078
108.535
97.913
92.7001
134.309
51.7428
36.8397
45.9968
33.8567
20.0375
21.6266
45.9441
46.7396
54.1815
35.0959
36.3713
56.5513
85.3539
87.1046
81.0438
64.1608
59.4814
59.9139
80.9746
32.3895
27.4286
29.0336
9.20101
2.90721
5.62783
10.7115
24.4517
39.2623
9.89397
7.97593
13.2865
36.6031
40.2297
44.2193
34.2458
34.431
35.9398
45.0063
8.8994
11.2443
6.58408
0.233859
-0.019159
0.260352
-1.64337
4.43778
23.5985
3.97585
-1.53695
0.759693
12.8573
21.629
25.9401
26.3142
27.1987
28.5992
31.0929
-2.15539
0.596876
-0.741471
-0.799523
-0.700215
-0.116107
-2.0185
-2.5344
12.6401
1.38663
-2.60648
-0.878217
2.34471
7.24711
15.5103
23.9527
29.4116
29.9565
30.001
139.504
135.805
127.69
118.562
107.656
94.6455
81.2221
67.5299
53.8255
42.0168
33.8134
26.4676
19.2624
14.4395
11.95
10.5405
9.71293
9.26628
8.9285
7.13394
4.67
2.96331
2.99941
62.0348
58.2292
52.2403
45.7628
37.4292
26.5472
18.1621
9.93303
4.58617
2.37634
1.13181
0.149673
-0.428264
-0.36998
-0.241881
-0.206688
-0.218714
-0.224117
-0.198066
-0.144766
-0.137084
-0.132543
-0.101644
14.0731
9.6643
6.39909
3.78821
0.996816
-0.666238
-0.81694
-0.700062
-0.663062
-0.659488
-0.671702
-0.725233
-0.711283
-0.57497
-0.463513
-0.395673
-0.368476
-0.354664
-0.326208
-0.269987
-0.242874
-0.255863
-0.209341
-0.789923
-0.837185
-0.82275
-0.810334
-0.843568
-0.859666
-0.842387
-0.818712
-0.793682
-0.774848
-0.777471
-0.778948
-0.738744
-0.663038
-0.59247
-0.536732
-0.500366
-0.475301
-0.445031
-0.400799
-0.361431
-0.335203
-0.314968
-0.85255
-0.896965
-0.91717
-0.922031
-0.919655
-0.901786
-0.89711
-0.88403
-0.87438
-0.861589
-0.849384
-0.833298
-0.800412
-0.75259
-0.704186
-0.660468
-0.624287
-0.59275
-0.559285
-0.520734
-0.481955
-0.451526
-0.43096
-0.941249
-0.978121
-1.00234
-1.01365
-1.0134
-1.00566
-1.00018
-0.99196
-0.980193
-0.965328
-0.94847
-0.925434
-0.893563
-0.855565
-0.816306
-0.778507
-0.743785
-0.710917
-0.677363
-0.641788
-0.606347
-0.577075
-0.550631
-1.06993
-1.10545
-1.11661
-1.11882
-1.11348
-1.10412
-1.09542
-1.08566
-1.07369
-1.05911
-1.04161
-1.01992
-0.99232
-0.960286
-0.926434
-0.892706
-0.860082
-0.828228
-0.796298
-0.763793
-0.731877
-0.703249
-0.676222
-1.19656
-1.21456
-1.22177
-1.2223
-1.21618
-1.2075
-1.19868
-1.18852
-1.17593
-1.16062
-1.14202
-1.12017
-1.09491
-1.06678
-1.03694
-1.00649
-0.976077
-0.945799
-0.915534
-0.885235
-0.855555
-0.827445
-0.800547
-1.31834
-1.32765
-1.33118
-1.32881
-1.32133
-1.31214
-1.30244
-1.29145
-1.27843
-1.26299
-1.24502
-1.22419
-1.20075
-1.17521
-1.14823
-1.12039
-1.09211
-1.06359
-1.03491
-1.0062
-0.97783
-0.95017
-0.923197
-1.43305
-1.43773
-1.43869
-1.43559
-1.42803
-1.41891
-1.40885
-1.39746
-1.38425
-1.36894
-1.35139
-1.33156
-1.30963
-1.28596
-1.26098
-1.23507
-1.20854
-1.18155
-1.15427
-1.12684
-1.0995
-1.07241
-1.04562
-1.54371
-1.54601
-1.54669
-1.54413
-1.53706
-1.52815
-1.51789
-1.50633
-1.49313
-1.47806
-1.46099
-1.44201
-1.42126
-1.39901
-1.37553
-1.35109
-1.3259
-1.30015
-1.27398
-1.24754
-1.221
-1.19446
-1.16798
-1.65617
-1.65708
-1.65774
-1.6558
-1.64924
-1.64045
-1.63008
-1.6184
-1.6052
-1.59029
-1.57363
-1.55528
-1.5354
-1.51418
-1.49181
-1.46847
-1.44434
-1.41956
-1.39428
-1.36863
-1.34273
-1.31668
-1.29057
-1.77357
-1.77397
-1.7742
-1.77187
-1.76517
-1.75613
-1.74548
-1.73358
-1.72024
-1.70542
-1.689
-1.67109
-1.65182
-1.63132
-1.60975
-1.58724
-1.56392
-1.53991
-1.51535
-1.49034
-1.465
-1.43945
-1.41376
-1.89618
-1.89706
-1.89656
-1.89266
-1.88493
-1.87511
-1.86394
-1.85165
-1.83802
-1.82315
-1.80683
-1.78918
-1.7703
-1.75031
-1.72932
-1.70743
-1.68473
-1.66133
-1.63736
-1.6129
-1.58809
-1.56303
-1.53784
-2.02348
-2.02527
-2.02374
-2.01755
-2.00808
-1.99706
-1.98511
-1.9723
-1.95841
-1.94322
-1.92684
-1.9093
-1.89068
-1.87105
-1.85049
-1.82906
-1.80686
-1.78396
-1.76048
-1.73651
-1.71218
-1.68763
-1.66302
-2.1547
-2.15712
-2.15419
-2.14556
-2.13396
-2.12147
-2.10854
-2.09507
-2.08075
-2.06526
-2.04877
-2.03128
-2.01283
-1.99346
-1.97323
-1.95218
-1.93038
-1.9079
-1.88484
-1.8613
-1.83744
-1.81341
-1.78944
-2.28825
-2.29102
-2.28658
-2.27574
-2.2619
-2.24778
-2.23378
-2.21959
-2.20475
-2.189
-2.1724
-2.15494
-2.13663
-2.11749
-2.09753
-2.0768
-2.05534
-2.03322
-2.01053
-1.98739
-1.96396
-1.94047
-1.91721
-2.42227
-2.42557
-2.42001
-2.40733
-2.39127
-2.37551
-2.36042
-2.34552
-2.33021
-2.31423
-2.29757
-2.28016
-2.26199
-2.24306
-2.22336
-2.20291
-2.18175
-2.15995
-2.13759
-2.11481
-2.09176
-2.06876
-2.04626
-2.55509
-2.5602
-2.55409
-2.53983
-2.52154
-2.50414
-2.48804
-2.47254
-2.4569
-2.44076
-2.42412
-2.40681
-2.38882
-2.37011
-2.35067
-2.3305
-2.30963
-2.28811
-2.26604
-2.24357
-2.22076
-2.19803
-2.17569
-2.68534
-2.69467
-2.6884
-2.67265
-2.65204
-2.63311
-2.61623
-2.60037
-2.5846
-2.56855
-2.55194
-2.5348
-2.51704
-2.49859
-2.47942
-2.45953
-2.43894
-2.41768
-2.39585
-2.37358
-2.35101
-2.32843
-2.30617
-2.81493
-2.82518
-2.82134
-2.80459
-2.78166
-2.76178
-2.74462
-2.72874
-2.71308
-2.69719
-2.68086
-2.66403
-2.64657
-2.62844
-2.6096
-2.58999
-2.56968
-2.54868
-2.52707
-2.50496
-2.48252
-2.45998
-2.43765
-2.94155
-2.95111
-2.95148
-2.93485
-2.90858
-2.88959
-2.87295
-2.85753
-2.84227
-2.82677
-2.81085
-2.79445
-2.77739
-2.75963
-2.74113
-2.72187
-2.70185
-2.6811
-2.6597
-2.63773
-2.61534
-2.59273
-2.57018
-3.06472
-3.07245
-3.0749
-3.06022
-3.0361
-3.01686
-3.00137
-2.98676
-2.97215
-2.95724
-2.9419
-2.926
-2.90943
-2.89213
-2.87404
-2.85515
-2.83545
-2.81497
-2.79377
-2.77192
-2.74954
-2.72679
-2.7039
-3.18513
-3.19011
-3.19356
-3.18203
-3.16149
-3.14398
-3.12978
-3.11634
-3.10268
-3.08859
-3.07396
-3.05869
-3.0427
-3.02592
-3.0083
-2.98982
-2.97049
-2.95031
-2.92932
-2.90759
-2.8852
-2.86228
-2.83901
-3.30403
-3.30615
-3.30971
-3.30164
-3.28563
-3.27093
-3.25852
-3.24649
-3.23398
-3.22086
-3.20707
-3.19254
-3.1772
-3.161
-3.14391
-3.1259
-3.10697
-3.08713
-3.0664
-3.04482
-3.02245
-2.99938
-2.97573
-3.42293
-3.423
-3.42629
-3.42127
-3.40983
-3.39835
-3.38798
-3.37747
-3.36621
-3.35415
-3.34128
-3.32755
-3.31293
-3.29738
-3.28088
-3.2634
-3.24494
-3.22549
-3.20507
-3.1837
-3.1614
-3.13824
-3.11429
-3.54324
-3.54236
-3.54537
-3.54276
-3.53532
-3.52689
-3.51852
-3.50953
-3.49953
-3.48857
-3.47665
-3.46378
-3.44993
-3.43508
-3.41922
-3.40233
-3.3844
-3.36543
-3.34539
-3.32431
-3.30219
-3.27905
-3.25493
-3.666
-3.66497
-3.6678
-3.66716
-3.66292
-3.65707
-3.65048
-3.64289
-3.63411
-3.62422
-3.61327
-3.60127
-3.58823
-3.57413
-3.55896
-3.54273
-3.5254
-3.50697
-3.48742
-3.46674
-3.44491
-3.42194
-3.39783
-3.79204
-3.79096
-3.79386
-3.79493
-3.79309
-3.7892
-3.7841
-3.77774
-3.77007
-3.7612
-3.75119
-3.74007
-3.72785
-3.71453
-3.70012
-3.68461
-3.66797
-3.65018
-3.63121
-3.61105
-3.58968
-3.56705
-3.54316
-3.92183
-3.92049
-3.92377
-3.92621
-3.92595
-3.92346
-3.91952
-3.91419
-3.90751
-3.89958
-3.89046
-3.8802
-3.86882
-3.85633
-3.84272
-3.82799
-3.81211
-3.79506
-3.7768
-3.75731
-3.73655
-3.71447
-3.69102
-4.05549
-4.05386
-4.05765
-4.06095
-4.06157
-4.0599
-4.0568
-4.05231
-4.04648
-4.03939
-4.03111
-4.0217
-4.01117
-3.99952
-3.98676
-3.97288
-3.95784
-3.94163
-3.92421
-3.90554
-3.88557
-3.86424
-3.84149
-4.19281
-4.19108
-4.19521
-4.19868
-4.19952
-4.1984
-4.19591
-4.19209
-4.18697
-4.18064
-4.17318
-4.16457
-4.15488
-4.1441
-4.13223
-4.11926
-4.10516
-4.0899
-4.07344
-4.05574
-4.03674
-4.01639
-3.99459
-4.33328
-4.33177
-4.33582
-4.33891
-4.33966
-4.33882
-4.33676
-4.33345
-4.32894
-4.3233
-4.31658
-4.30878
-4.29993
-4.29005
-4.27912
-4.26712
-4.25403
-4.23983
-4.22447
-4.2079
-4.19008
-4.17091
-4.15033
-4.47624
-4.47518
-4.47876
-4.48118
-4.4817
-4.48099
-4.4792
-4.47631
-4.47233
-4.46731
-4.4613
-4.45429
-4.44629
-4.43732
-4.42737
-4.41641
-4.40443
-4.39139
-4.37726
-4.36199
-4.34551
-4.32776
-4.30866
-4.62106
-4.62049
-4.62336
-4.62506
-4.62533
-4.62466
-4.62307
-4.62053
-4.61703
-4.61262
-4.60727
-4.60103
-4.59389
-4.58586
-4.57693
-4.56708
-4.55628
-4.54451
-4.53174
-4.51791
-4.50297
-4.48684
-4.46947
-4.7672
-4.76701
-4.76911
-4.7702
-4.77026
-4.7696
-4.76819
-4.76596
-4.76291
-4.75906
-4.75438
-4.74891
-4.74264
-4.73558
-4.72772
-4.71903
-4.7095
-4.6991
-4.68781
-4.67557
-4.66233
-4.64804
-4.63264
-4.91425
-4.91425
-4.91567
-4.9163
-4.91623
-4.9156
-4.91437
-4.91246
-4.90984
-4.90653
-4.90253
-4.89784
-4.89246
-4.88639
-4.87964
-4.87218
-4.86399
-4.85506
-4.84536
-4.83485
-4.82348
-4.81122
-4.79803
-5.06188
-5.06194
-5.06282
-5.06316
-5.06302
-5.06246
-5.06145
-5.05994
-5.0578
-5.05506
-5.05168
-5.04773
-5.04324
-5.0382
-5.0326
-5.02642
-5.01965
-5.01229
-5.00429
-4.99563
-4.98629
-4.97623
-4.96544
-5.20987
-5.20994
-5.21043
-5.2106
-5.21045
-5.21001
-5.20928
-5.20825
-5.20694
-5.20453
-5.20165
-5.19842
-5.19482
-5.19082
-5.1864
-5.18156
-5.17627
-5.17053
-5.16432
-5.15762
-5.15042
-5.14272
-5.1345
-5.35807
-5.35812
-5.35836
-5.35844
-5.35828
-5.35798
-5.35752
-5.357
-5.35694
-5.35442
-5.35204
-5.34957
-5.3469
-5.34398
-5.34079
-5.33731
-5.33354
-5.32947
-5.3251
-5.32042
-5.31543
-5.31015
-5.30457
-5.50636
-5.50637
-5.50645
-5.50646
-5.50633
-5.50606
-5.50565
-5.50504
-5.50395
-5.50318
-5.50206
-5.50069
-5.49912
-5.49738
-5.49548
-5.49344
-5.49125
-5.48892
-5.48645
-5.48386
-5.48117
-5.4784
-5.47557
-5.65472
-5.6547
-5.6547
-5.65469
-5.65461
-5.65446
-5.65423
-5.65384
-5.65295
-5.65319
-5.65298
-5.65259
-5.65213
-5.65163
-5.65113
-5.65063
-5.65016
-5.64972
-5.64935
-5.64908
-5.64895
-5.64899
-5.64927
7.66834
9.9018
10.2226
9.98268
-0.0987279
-0.0605521
-0.0044407
0.0799275
-0.195263
-0.161591
-0.151926
-0.1299
-0.290407
-0.270812
-0.248633
-0.211556
-0.408875
-0.386268
-0.367287
-0.348496
-0.526713
-0.502967
-0.478182
-0.455157
-0.6498
-0.623305
-0.598004
-0.574355
-0.772822
-0.74455
-0.717714
-0.692528
-0.895033
-0.865971
-0.837875
-0.81105
-1.01732
-0.987793
-0.95895
-0.930923
-1.13976
-1.11011
-1.08092
-1.05202
-1.26261
-1.23317
-1.2041
-1.17471
-1.38622
-1.35727
-1.32886
-1.29955
-1.51085
-1.48267
-1.45558
-1.42753
-1.63672
-1.60952
-1.58422
-1.55855
-1.76399
-1.73782
-1.71463
-1.69353
-1.89278
-1.86738
-1.84669
-1.83129
-2.02356
-1.99699
-1.98031
-1.96642
-2.15266
-2.12907
-2.11218
-2.09896
-2.28313
-2.26015
-2.24242
-2.22805
-2.41437
-2.39102
-2.37162
-2.35536
-2.54639
-2.52219
-2.50067
-2.48199
-2.67944
-2.65409
-2.63034
-2.60886
-2.81382
-2.78716
-2.76127
-2.73678
-2.94984
-2.92187
-2.89401
-2.86659
-3.08779
-3.05869
-3.02907
-2.9991
-3.22799
-3.198
-3.16695
-3.13491
-3.37068
-3.34012
-3.30806
-3.27447
-3.51607
-3.4853
-3.45268
-3.4181
-3.66429
-3.6337
-3.601
-3.56602
-3.81542
-3.78542
-3.75315
-3.7184
-3.96952
-3.94053
-3.90921
-3.87532
-4.12659
-4.09905
-4.0692
-4.0368
-4.28658
-4.26092
-4.23305
-4.20275
-4.44938
-4.426
-4.40059
-4.37297
-4.61483
-4.59411
-4.57162
-4.5472
-4.78278
-4.76508
-4.74591
-4.7252
-4.95302
-4.93866
-4.92319
-4.90661
-5.12509
-5.11431
-5.10284
-5.09071
-5.29828
-5.2912
-5.28383
-5.27628
-5.47252
-5.46929
-5.46622
-5.46344
-5.64991
-5.65113
-5.65305
-5.6559
0.469258
-0.176657
-0.417154
-0.614552
-0.516031
0.191977
-1.05584
-2.1187
2.48451
-2.04342
-5.10775
-3.04899
0.552362
1.48462
10.8869
28.3119
31.5276
31.0271
31.6303
0.0896752
-0.151854
-0.272456
-0.33678
-0.215014
0.278374
-0.35128
-0.453285
-0.239265
-3.84711
-7.84938
-4.59225
-0.737943
-1.09519
7.3215
29.8419
33.943
32.6109
33.8561
-0.120505
-0.168622
-0.215812
-0.152474
0.0293921
0.20133
-0.445482
0.222532
0.0389691
-2.60938
-8.89677
-4.58696
-1.4299
-2.12516
4.36622
30.444
36.2307
34.2763
36.1258
-0.209376
-0.2321
-0.224169
-0.105788
0.0967428
0.0865792
-1.01568
-0.965324
-0.833799
-1.8848
-6.35448
-4.54336
-1.60611
-2.75599
3.01631
29.4109
37.4149
34.7886
36.5672
-0.327009
-0.313396
-0.282409
-0.172395
-0.00378728
-0.0260896
-0.867286
-0.918299
-0.946391
-1.42448
-3.76209
-4.32936
-1.77501
-3.2928
3.51679
24.6038
35.4145
33.1779
34.7483
-0.432914
-0.40931
-0.370083
-0.283731
-0.171742
-0.190728
-0.684359
-0.834472
-0.981001
-1.16255
-2.29096
-3.63219
-1.90769
-1.75752
3.07379
15.7975
25.8876
28.0175
29.3929
-0.546936
-0.51559
-0.473815
-0.40589
-0.338021
-0.37109
-0.670087
-0.773205
-0.903563
-0.867497
-1.36857
-2.60627
-1.72932
-0.374814
1.82966
4.15509
10.9088
18.9641
18.7882
-0.662459
-0.627569
-0.585334
-0.528548
-0.487161
-0.53268
-0.738008
-0.748811
-0.76442
-0.546479
-0.364519
-1.5356
-1.28654
0.174013
1.48378
1.99122
1.131
7.9059
7.99254
-0.779122
-0.742681
-0.69968
-0.646624
-0.616934
-0.668422
-0.802172
-0.738211
-0.609416
-0.24792
0.824877
-0.353531
-0.787321
0.416739
1.67211
1.8796
1.393
1.43017
3.64951
-0.897552
-0.860621
-0.815624
-0.758117
-0.724801
-0.768257
-0.857105
-0.743095
-0.478826
0.0478222
1.30542
0.893342
0.0826525
0.61804
1.91548
1.89928
2.04708
1.94899
2.26911
-1.01768
-0.982019
-0.934944
-0.86506
-0.813041
-0.837231
-0.901564
-0.788022
-0.427668
0.287282
1.62289
1.67672
0.621216
0.828209
1.92146
1.8575
2.07277
2.18599
1.69615
-1.13991
-1.10867
-1.06229
-0.971785
-0.883558
-0.879872
-0.93603
-0.883823
-0.519231
0.301353
1.44982
1.31022
0.669126
0.982967
1.63248
1.74139
1.99968
1.94355
3.79678
-1.26476
-1.24296
-1.20659
-1.0864
-0.934156
-0.898165
-0.958498
-1.01761
-0.784847
-0.111852
0.693496
0.998521
0.853116
0.837824
1.41968
1.57874
1.98849
2.09585
3.68756
-1.39408
-1.38952
-1.37984
-1.21278
-0.957069
-0.903748
-0.985475
-1.21149
-1.14427
-0.599864
-0.174809
0.446866
0.539826
0.7216
1.29217
1.42124
1.99649
2.38336
2.69984
-1.52745
-1.54765
-1.60541
-1.402
-0.993426
-0.911721
-1.0582
-1.48885
-1.69904
-1.14806
-0.407791
-0.165973
0.266366
0.554564
1.17031
1.28874
1.93754
2.17262
2.80191
-1.67248
-1.73256
-1.95592
-1.74883
-1.19468
-0.999528
-1.2207
-1.80296
-2.59387
-1.60596
-1.04608
-0.55508
-0.011114
0.418646
1.01567
1.14686
1.7969
1.60396
2.69892
-1.82748
-1.90691
-2.31883
-2.23505
-1.60225
-1.2561
-1.47012
-2.07475
-3.36335
-2.15243
-1.52202
-1.02395
-0.287419
0.257974
0.846465
1.01713
1.63453
1.04643
2.56199
-1.97857
-2.04971
-2.44515
-2.48883
-1.96539
-1.67305
-1.78995
-2.31197
-3.39317
-3.59966
-1.89195
-1.44462
-0.550994
0.109376
0.720213
0.950274
1.56324
0.76759
2.56561
-2.11182
-2.17136
-2.42983
-2.53305
-2.16056
-2.00859
-2.12494
-2.53412
-3.34959
-3.94305
-2.26893
-1.66397
-0.763823
0.00237744
0.667536
0.980783
1.57831
0.79685
3.93281
-2.23347
-2.2662
-2.41713
-2.4967
-2.2801
-2.22545
-2.36921
-2.72907
-3.93479
-3.92689
-2.50453
-1.72452
-0.89142
-0.0650936
0.682992
1.11428
1.70347
0.942702
4.85724
-2.35106
-2.35798
-2.43616
-2.48205
-2.36385
-2.36395
-2.48674
-2.70477
-3.75685
-3.71683
-2.55223
-1.73228
-0.971538
-0.120578
0.732299
1.31183
1.92137
1.30247
7.89296
-2.46855
-2.45946
-2.48951
-2.51429
-2.44781
-2.43897
-2.45256
-2.49154
-3.20902
-3.29893
-2.48716
-1.73953
-1.03301
-0.183767
0.747627
1.46301
2.22403
1.94446
6.13155
-2.58757
-2.56777
-2.56508
-2.57534
-2.533
-2.45976
-2.33686
-2.2728
-2.82629
-2.92163
-2.38204
-1.74862
-1.08143
-0.258341
0.676121
1.46731
2.29182
2.03054
0.708046
-2.70878
-2.6794
-2.65273
-2.63499
-2.59125
-2.49328
-2.33736
-2.23881
-2.56828
-2.63358
-2.28791
-1.76324
-1.13409
-0.343806
0.545376
1.32176
2.04108
1.84769
1.16384
-2.83289
-2.79414
-2.75141
-2.70791
-2.65076
-2.55832
-2.42801
-2.32602
-2.45169
-2.47501
-2.23558
-1.79631
-1.20144
-0.442964
0.379083
1.07984
1.64463
1.59222
1.33206
-2.96067
-2.91351
-2.86046
-2.80139
-2.73235
-2.6432
-2.52916
-2.41855
-2.43592
-2.41846
-2.2279
-1.84232
-1.28057
-0.567005
0.180232
0.810029
1.24124
1.28385
1.30292
-3.09276
-3.03859
-2.97742
-2.90848
-2.8305
-2.73831
-2.62759
-2.51713
-2.47131
-2.42042
-2.24725
-1.89854
-1.38103
-0.729064
-0.040389
0.536835
0.88587
0.963216
1.15944
-3.22955
-3.16995
-3.10226
-3.02556
-2.94029
-2.84376
-2.7327
-2.61963
-2.53852
-2.45907
-2.29141
-1.97802
-1.51789
-0.937154
-0.293681
0.250142
0.580171
0.652594
0.939622
-3.37131
-3.30799
-3.23574
-3.15387
-3.06304
-2.96137
-2.8467
-2.72854
-2.62741
-2.52884
-2.36943
-2.09596
-1.70086
-1.19431
-0.599905
-0.0657345
0.277999
0.346177
0.691468
-3.51826
-3.45287
-3.37807
-3.29319
-3.19837
-3.09181
-2.97308
-2.85135
-2.74098
-2.63625
-2.4933
-2.2617
-1.93151
-1.49526
-0.946482
-0.42855
-0.0667406
0.00893051
0.463904
-3.67064
-3.60479
-3.52938
-3.44361
-3.34698
-3.23798
-3.11798
-2.99706
-2.88702
-2.7879
-2.6674
-2.47634
-2.21053
-1.8405
-1.32245
-0.814296
-0.437047
-0.361426
0.264463
-3.82854
-3.76382
-3.68976
-3.60545
-3.51003
-3.40257
-3.2861
-3.17174
-3.06947
-2.98337
-2.88791
-2.73713
-2.54234
-2.25286
-1.76707
-1.24
-0.813079
-0.69577
-0.0328427
-3.99198
-3.9299
-3.85905
-3.77859
-3.68767
-3.58609
-3.47805
-3.37509
-3.28523
-3.21651
-3.14845
-3.04198
-2.93394
-2.75332
-2.3079
-1.73459
-1.20795
-1.15213
-0.492929
-4.16081
-4.10278
-4.03684
-3.96237
-3.87883
-3.78675
-3.69087
-3.60271
-3.52835
-3.48082
-3.44433
-3.3899
-3.39338
-3.35792
-2.97439
-2.36755
-1.75322
-2.0763
-1.09629
-4.33477
-4.28208
-4.22254
-4.15587
-4.08197
-4.00198
-3.92089
-3.85003
-3.7939
-3.77124
-3.77145
-3.77663
-3.91755
-4.06322
-3.76456
-3.20354
-2.52796
-3.60677
-1.51356
-4.51354
-4.46734
-4.41554
-4.35822
-4.29572
-4.22981
-4.16556
-4.11419
-4.07913
-4.0848
-4.12639
-4.19417
-4.48837
-4.84353
-4.6404
-4.1293
-3.31296
-5.37069
-2.04519
-4.69679
-4.65811
-4.61528
-4.56873
-4.51931
-4.46937
-4.4242
-4.39483
-4.38448
-4.42243
-4.50876
-4.63876
-5.09055
-5.64551
-5.52749
-5.00653
-3.89542
-6.10622
0.644166
-4.88407
-4.85385
-4.82116
-4.78679
-4.75213
-4.72015
-4.69646
-4.69161
-4.70963
-4.78261
-4.91236
-5.10596
-5.70138
-6.37944
-6.30539
-5.78624
-4.52168
-7.21645
-1.25723
-5.0745
-5.05338
-5.03161
-5.01033
-4.99144
-4.97841
-4.97714
-4.99718
-5.04428
-5.14877
-5.31087
-5.56325
-6.22711
-6.93473
-6.89859
-6.41611
-5.23656
-8.92968
-6.22831
-5.26652
-5.2547
-5.244
-5.2359
-5.23271
-5.23824
-5.2584
-5.3017
-5.37559
-5.50372
-5.68394
-5.9676
-6.55572
-7.29988
-7.16218
-6.7683
-5.91398
-11.0692
-9.99506
-5.46049
-5.4585
-5.45955
-5.46552
-5.47918
-5.50471
-5.54812
-5.61741
-5.72144
-5.87688
-6.08134
-6.37719
-6.79026
-7.52375
-6.92532
-6.68926
-6.28338
-13.1634
-44.7446
-5.66103
-5.67097
-5.68659
-5.71041
-5.74604
-5.79856
-5.87477
-5.9834
-6.13483
-6.34435
-6.60774
-6.97359
-7.28863
-7.52768
-6.32273
-6.47414
-6.99611
-12.0932
-88.1299
)
;

boundaryField
{
    leftWall
    {
        type            calculated;
        value           nonuniform List<scalar> 
50
(
1435.42
1258.2
1082.91
910.026
740.459
573.362
409.785
254.165
139.504
62.0348
14.0731
-0.789923
-0.85255
-0.941249
-1.06993
-1.19656
-1.31834
-1.43305
-1.54371
-1.65617
-1.77357
-1.89618
-2.02348
-2.1547
-2.28825
-2.42227
-2.55509
-2.68534
-2.81493
-2.94155
-3.06472
-3.18513
-3.30403
-3.42293
-3.54324
-3.666
-3.79204
-3.92183
-4.05549
-4.19281
-4.33328
-4.47624
-4.62106
-4.7672
-4.91425
-5.06188
-5.20987
-5.35807
-5.50636
-5.65472
)
;
    }
    rightWall
    {
        type            calculated;
        value           nonuniform List<scalar> 
50
(
306.411
246.45
193.992
134.309
80.9746
45.0063
31.0929
30.001
31.6303
33.8561
36.1258
36.5672
34.7483
29.3929
18.7882
7.99254
3.64951
2.26911
1.69615
3.79678
3.68756
2.69984
2.80191
2.69892
2.56199
2.56561
3.93281
4.85724
7.89296
6.13155
0.708046
1.16384
1.33206
1.30292
1.15944
0.939622
0.691468
0.463904
0.264463
-0.0328427
-0.492929
-1.09629
-1.51356
-2.04519
0.644166
-1.25723
-6.22831
-9.99506
-44.7446
-88.1299
)
;
    }
    lowerWall
    {
        type            calculated;
        value           nonuniform List<scalar> 
62
(
1524.94
1524.41
1523.24
1521.33
1518.88
1516.02
1512.8
1509.24
1505.42
1501.39
1497.21
1492.95
1488.67
1484.42
1480.28
1476.32
1472.62
1469.28
1466.45
1464.13
1462.81
1462.64
1460.1
1373.3
1186.1
996.966
821.808
641.797
443.026
237.233
57.3939
14.9963
19.0242
19.4061
19.1615
171.785
111.383
84.2181
67.7465
51.7428
32.3895
8.8994
-2.15539
209.193
196.495
115.936
89.2687
122.815
164.383
166.138
144.244
125.499
136.749
217.416
281.341
324.917
347.794
332.262
272.134
288.579
332.874
343.538
)
;
    }
    atmosphere
    {
        type            calculated;
        value           nonuniform List<scalar> 
46
(
-5.72904
-5.72904
-5.72904
-5.72904
-5.72904
-5.72904
-5.72904
-5.72904
-5.72904
-5.72904
-5.72906
-5.72912
-5.72925
-5.72945
-5.72974
-5.73013
-5.73064
-5.73132
-5.73218
-5.73328
-5.73466
-5.7364
-5.73857
-5.74147
-5.74544
-5.75049
-5.75692
-5.76727
-5.78503
-5.81043
-5.84653
-5.8977
-5.96992
-6.07097
-6.21065
-6.40079
-6.65932
-6.9739
-7.45277
-7.75284
-7.32402
-5.74642
-5.90892
-5.96316
-6.09738
-394.48
)
;
    }
    defaultFaces
    {
        type            empty;
    }
}


// ************************************************************************* //
