/*--------------------------------*- C++ -*----------------------------------*\
| =========                 |                                                 |
| \\      /  F ield         | OpenFOAM: The Open Source CFD Toolbox           |
|  \\    /   O peration     | Version:  2206                                  |
|   \\  /    A nd           | Website:  www.openfoam.com                      |
|    \\/     M anipulation  |                                                 |
\*---------------------------------------------------------------------------*/
FoamFile
{
    version     2.0;
    format      ascii;
    arch        "LSB;label=32;scalar=64";
    class       volScalarField;
    location    "0.775";
    object      p_rgh;
}
// * * * * * * * * * * * * * * * * * * * * * * * * * * * * * * * * * * * * * //

dimensions      [1 -1 -2 0 0 0 0];

internalField   nonuniform List<scalar> 
2268
(
1524.94
1524.41
1523.24
1521.33
1518.88
1516.02
1512.8
1509.24
1505.42
1501.39
1497.21
1492.95
1488.67
1484.42
1480.28
1476.32
1472.62
1469.28
1466.45
1464.13
1462.81
1462.64
1460.1
1526.75
1526.11
1524.9
1522.86
1520.31
1517.3
1513.86
1510.09
1506.05
1501.8
1497.41
1492.92
1488.4
1483.91
1479.49
1475.18
1471.1
1467.15
1463.5
1459.78
1456.43
1452.57
1438.17
1530.49
1529.74
1528.41
1526.23
1523.5
1520.24
1516.53
1512.4
1507.96
1503.27
1498.35
1493.33
1488.32
1483.38
1478.58
1473.96
1469.47
1465.01
1460.68
1455.54
1450.22
1421.84
1404.78
1536.64
1535.82
1534.2
1531.71
1528.56
1524.76
1520.36
1515.46
1510.16
1504.58
1498.9
1493.21
1487.57
1482.04
1476.69
1471.59
1466.79
1462.33
1458.22
1454.12
1449.12
1430.51
1392.79
1546.11
1544.8
1542.78
1539.8
1536.04
1531.39
1526.01
1520.04
1513.67
1507.06
1500.38
1493.63
1486.96
1480.49
1474.29
1468.45
1463.04
1458.18
1453.99
1450.44
1448.23
1446.98
1439.31
1558.04
1556.27
1554.32
1551.01
1546.46
1540.52
1533.57
1525.88
1517.73
1509.4
1501.03
1492.83
1484.74
1476.87
1469.38
1462.38
1455.85
1449.75
1444.01
1438.77
1434.17
1430.89
1427.7
1573.5
1570.88
1568.73
1565.35
1560.06
1552.22
1543.16
1533.38
1522.97
1512.44
1502.18
1492.16
1482.47
1473.09
1464.24
1455.94
1448.06
1440.55
1432.92
1425.1
1416.86
1412.07
1400.94
1596.91
1593.85
1588.58
1581
1574.44
1564.01
1551.55
1538.12
1524.6
1512.44
1500.85
1489.29
1477.12
1429.9
1375.44
1326.42
1285.2
1251.07
1208.01
1153.47
1076.96
898.861
716.271
209.193
196.495
115.936
89.2687
122.815
164.383
166.138
144.244
125.499
136.749
217.416
281.341
324.917
347.794
332.262
272.134
288.579
332.874
343.538
223.607
184.523
66.6448
47.9697
68.3248
106.096
101.924
92.835
87.6167
105.644
137.045
283.87
376.425
386.271
230.624
180.811
183.309
297.265
357.827
271.219
166.103
59.6055
55.2077
73.3535
77.1229
73.4358
73.434
76.9722
110.263
189.493
259.85
237.37
223.433
175.347
152.208
139.285
172.184
371.386
320.735
117.412
66.6381
67.4787
89.3984
89.4863
69.9778
85.4256
143.863
141.716
129.063
120.263
156.878
172.623
140.901
129.54
105.676
97.2853
374.353
302.487
80.1853
75.7507
113.026
80.2731
34.7333
58.5679
132.03
146.267
109.67
40.8678
69.062
118.761
120.984
115.093
98.2036
72.8384
64.7432
388.615
244.128
135.458
138.18
107.472
11.9485
7.59241
43.0566
136.103
151.655
50.7241
12.1829
31.4284
77.8038
70.0472
64.8715
69.9805
44.4263
40.3619
377.926
251.077
243.795
123.132
1.4002
1.17278
1.61515
16.4018
108.143
153.267
13.609
3.02179
11.7143
52.7345
30.4746
34.6312
35.6403
47.4511
33.647
189.761
162.23
19.143
0.601391
0.544474
0.645553
1.25907
2.09927
75.3639
157.965
20.8892
2.64923
4.12447
6.72317
17.0616
36.8735
35.374
49.0615
35.4171
181.733
1622.91
1619.2
1611.04
1600.75
1590.52
1573.04
1546.11
1443.75
1234.6
1072.69
936.663
767.666
571.976
441.891
365.314
320.94
295.972
282.619
272.041
217.433
141.647
81.1067
83.1488
1584.96
1516.92
1433.41
1300.86
1091.57
865.517
608.268
339.642
166.098
94.0373
55.3907
29.6216
10.058
1.31962
1.40446
1.43198
1.4152
1.41695
1.46962
1.54118
1.58703
1.52704
1.48483
499.985
355.401
244.52
153.84
60.6578
1.02178
0.871081
0.987958
1.02496
1.02853
1.01632
0.962791
0.976743
1.11531
1.22647
1.29376
1.32052
1.33464
1.36503
1.42385
1.45332
1.43459
1.47872
1.0004
0.95314
0.967575
0.979991
0.946757
0.930659
0.947938
0.971613
0.996643
1.01549
1.01302
1.01175
1.05166
1.12735
1.19791
1.25363
1.29
1.31506
1.3454
1.38977
1.4293
1.45514
1.47538
1.04014
0.995671
0.97546
0.970598
0.972975
0.990843
0.99552
1.0086
1.01825
1.03104
1.04325
1.05934
1.09222
1.14004
1.18844
1.23216
1.26835
1.29988
1.33335
1.3719
1.41069
1.4411
1.46167
1.05398
1.01694
0.992589
0.981282
0.981534
0.98927
0.994757
1.00297
1.01474
1.02961
1.04646
1.0695
1.10137
1.13937
1.17863
1.21643
1.25115
1.28402
1.31757
1.35315
1.38859
1.41786
1.4443
1.02762
0.991866
0.980627
0.978413
0.98376
0.993119
1.00182
1.01158
1.02355
1.03813
1.05563
1.07732
1.10492
1.13695
1.1708
1.20453
1.23716
1.26901
1.30094
1.33344
1.36536
1.39399
1.42102
1.00317
0.984988
0.977774
0.977242
0.983365
0.992038
1.00086
1.01103
1.02361
1.03893
1.05752
1.07937
1.10463
1.13276
1.1626
1.19305
1.22346
1.25374
1.28401
1.31431
1.34399
1.3721
1.39899
0.983511
0.974193
0.97067
0.973039
0.980512
0.989702
0.999404
1.0104
1.02342
1.03885
1.05682
1.07765
1.10109
1.12663
1.15362
1.18145
1.20973
1.23826
1.26694
1.29565
1.32402
1.35168
1.37865
0.971105
0.966423
0.965463
0.968564
0.976123
0.985237
0.995303
1.00669
1.0199
1.03521
1.05276
1.07259
1.09452
1.11819
1.14318
1.16908
1.19562
1.2226
1.24988
1.27731
1.30465
1.33174
1.35853
0.962744
0.960449
0.959767
0.962323
0.969391
0.978309
0.988561
1.00012
1.01332
1.0284
1.04546
1.06445
1.08519
1.10744
1.13092
1.15537
1.18055
1.20631
1.23248
1.25891
1.28546
1.312
1.33847
0.952592
0.951679
0.951024
0.95296
0.95952
0.968305
0.97868
0.990358
1.00356
1.01846
1.03513
1.05348
1.07336
1.09458
1.11695
1.14029
1.16442
1.1892
1.21448
1.24013
1.26603
1.29208
1.31819
0.937495
0.937094
0.936868
0.939196
0.945889
0.954936
0.965585
0.977486
0.990824
1.00564
1.02206
1.03997
1.05925
1.07974
1.10131
1.12382
1.14715
1.17115
1.19572
1.22073
1.24606
1.27161
1.2973
0.917193
0.916303
0.916803
0.920704
0.928435
0.938253
0.949431
0.961722
0.975351
0.990218
1.00654
1.02419
1.04307
1.06305
1.08405
1.10594
1.12864
1.15203
1.17601
1.20047
1.22528
1.25034
1.27552
0.892193
0.8904
0.891933
0.898124
0.907592
0.918607
0.930564
0.94337
0.957261
0.972449
0.988834
1.00637
1.02499
1.04462
1.06519
1.08661
1.10882
1.13171
1.1552
1.17917
1.2035
1.22804
1.25266
0.86328
0.860861
0.863788
0.872415
0.884014
0.896509
0.909437
0.922902
0.937231
0.952713
0.969208
0.9867
1.00515
1.02451
1.04475
1.0658
1.0876
1.11008
1.13314
1.15667
1.18054
1.20456
1.22853
0.832032
0.829261
0.833699
0.844537
0.858386
0.872496
0.886497
0.900692
0.915534
0.931277
0.947876
0.965338
0.98365
1.0028
1.02275
1.04348
1.06494
1.08706
1.10975
1.13289
1.15632
1.17981
1.20307
0.800313
0.797015
0.802573
0.815251
0.831319
0.847078
0.862164
0.877068
0.892372
0.908351
0.925015
0.942424
0.960592
0.979528
0.999229
1.01968
1.04083
1.06263
1.08499
1.10777
1.13082
1.15382
1.17633
0.769796
0.764694
0.770796
0.785055
0.803353
0.820754
0.836848
0.852348
0.867991
0.884133
0.900773
0.918076
0.936069
0.954779
0.974222
0.994394
1.01526
1.03678
1.05885
1.08132
1.10413
1.12686
1.1492
0.741853
0.732528
0.738789
0.754544
0.775157
0.794083
0.810959
0.826825
0.842592
0.858642
0.875253
0.892393
0.910158
0.928606
0.94777
0.967662
0.988254
1.00951
1.03135
1.05362
1.07618
1.09876
1.12102
0.714569
0.704313
0.70816
0.724907
0.747837
0.767722
0.784882
0.80076
0.816418
0.832308
0.848634
0.86547
0.882924
0.901055
0.919903
0.93951
0.959822
0.980821
1.00243
1.02454
1.04698
1.06952
1.09185
0.690257
0.68069
0.68032
0.696949
0.723225
0.742215
0.758854
0.774277
0.789528
0.805033
0.82095
0.837351
0.854415
0.872171
0.890668
0.909933
0.929953
0.950697
0.972104
0.994073
1.01646
1.03907
1.06162
0.669387
0.661657
0.659204
0.67389
0.698008
0.717246
0.732733
0.747345
0.761961
0.776865
0.79221
0.808108
0.824675
0.841978
0.860066
0.878959
0.898656
0.919132
0.940336
0.962187
0.984569
1.00732
1.03021
0.651285
0.646302
0.642851
0.654382
0.674922
0.692432
0.706632
0.720074
0.733732
0.747825
0.762454
0.777718
0.793709
0.810493
0.828112
0.846589
0.865925
0.886104
0.907088
0.928819
0.951207
0.974128
0.997404
0.634681
0.63257
0.629001
0.637072
0.653083
0.667784
0.680192
0.692223
0.704732
0.717858
0.73165
0.74618
0.761518
0.777715
0.794807
0.812814
0.831742
0.851581
0.872311
0.893892
0.916264
0.939338
0.96299
0.618087
0.618021
0.614729
0.619748
0.631185
0.642672
0.653043
0.663549
0.674807
0.686872
0.699744
0.713468
0.728087
0.743637
0.760143
0.777622
0.796083
0.815527
0.835945
0.85732
0.879615
0.902777
0.926728
0.600088
0.600959
0.597951
0.600564
0.608008
0.616434
0.624803
0.633798
0.64379
0.654757
0.66667
0.679541
0.693392
0.70824
0.724102
0.740991
0.758921
0.777898
0.79793
0.819013
0.841137
0.864277
0.888395
0.579623
0.580657
0.577824
0.578467
0.582709
0.588561
0.595147
0.602741
0.611519
0.621408
0.632357
0.644355
0.657402
0.671502
0.686664
0.7029
0.720224
0.738654
0.758205
0.77889
0.800716
0.823686
0.847796
0.55589
0.556974
0.554073
0.553005
0.554846
0.55873
0.563836
0.570197
0.577861
0.586731
0.596741
0.607864
0.620085
0.633399
0.647808
0.663324
0.679966
0.697757
0.716719
0.736877
0.758256
0.780878
0.80477
0.528409
0.529743
0.526469
0.524026
0.524288
0.526774
0.530721
0.536044
0.542726
0.550658
0.559773
0.570033
0.581415
0.59391
0.607516
0.622248
0.638126
0.655178
0.673433
0.692925
0.713689
0.735768
0.759212
0.497053
0.498682
0.494888
0.491588
0.490975
0.492641
0.49574
0.500228
0.506065
0.513152
0.521429
0.530836
0.541374
0.553023
0.565782
0.579665
0.594697
0.610908
0.62833
0.647004
0.666976
0.688303
0.711051
0.462036
0.463762
0.459633
0.456167
0.455326
0.456447
0.458933
0.46276
0.467878
0.474202
0.48167
0.490272
0.499967
0.510747
0.522614
0.535585
0.549687
0.564949
0.581407
0.599106
0.6181
0.638457
0.660253
0.423872
0.425377
0.42133
0.418239
0.417489
0.418326
0.420392
0.4237
0.428207
0.433851
0.440574
0.448371
0.457217
0.467102
0.478034
0.49003
0.503116
0.51732
0.532681
0.549245
0.567074
0.586239
0.60682
0.38321
0.384273
0.380693
0.378271
0.377756
0.378467
0.380252
0.383147
0.387125
0.392148
0.398157
0.405169
0.413161
0.42213
0.432083
0.44304
0.455023
0.468062
0.482192
0.497465
0.513942
0.531694
0.550797
0.340695
0.341266
0.338399
0.336695
0.336426
0.337099
0.338685
0.34123
0.344724
0.349139
0.354487
0.360731
0.367866
0.375894
0.384826
0.39468
0.405477
0.417244
0.430017
0.443846
0.458791
0.474915
0.492286
0.296861
0.297052
0.29495
0.293865
0.2938
0.294461
0.295875
0.298102
0.301152
0.305006
0.309682
0.315154
0.321419
0.328479
0.336346
0.345035
0.354565
0.364961
0.376256
0.388497
0.401736
0.416027
0.431423
0.252119
0.252118
0.250697
0.250068
0.250139
0.25077
0.252001
0.253904
0.256528
0.259834
0.263832
0.268529
0.27391
0.279973
0.286729
0.294191
0.302375
0.311302
0.321003
0.331517
0.342885
0.355145
0.368341
0.206792
0.206734
0.205854
0.205513
0.205651
0.206208
0.207219
0.208733
0.210873
0.213614
0.216992
0.220938
0.22543
0.230472
0.236074
0.242251
0.249016
0.256385
0.264384
0.273042
0.282385
0.292439
0.303228
0.161108
0.161037
0.160545
0.160375
0.160527
0.16096
0.16169
0.162721
0.164037
0.166446
0.169324
0.172555
0.176157
0.180155
0.184571
0.189417
0.194704
0.200444
0.206655
0.213354
0.220552
0.228258
0.236479
0.11521
0.115157
0.114921
0.11484
0.114995
0.115298
0.115755
0.116283
0.116335
0.118856
0.121244
0.12371
0.126377
0.129297
0.132491
0.135969
0.139739
0.143807
0.14818
0.152862
0.157849
0.163133
0.168706
0.069228
0.0692107
0.0691376
0.0691209
0.0692545
0.0695229
0.0699369
0.0705392
0.071636
0.072405
0.0735212
0.0748975
0.0764672
0.0782047
0.0800992
0.0821442
0.0843347
0.0866664
0.0891333
0.0917231
0.094416
0.0971876
0.100012
0.0231689
0.0231845
0.0231902
0.0231959
0.0232805
0.0234268
0.0236584
0.0240492
0.0249427
0.0246941
0.0249043
0.025295
0.0257588
0.026254
0.0267592
0.0272574
0.0277323
0.0281656
0.0285339
0.0288055
0.0289414
0.028896
0.0286129
220.178
274.453
276.543
276.168
1.487
1.52516
4.66597
1.66564
1.49276
1.52643
1.53609
1.55812
1.49992
1.51951
1.54169
1.57877
1.48375
1.50636
1.52534
1.54413
1.46822
1.49197
1.51675
1.53978
1.44744
1.47393
1.49923
1.52288
1.42672
1.45499
1.48183
1.50701
1.40681
1.43587
1.46397
1.4908
1.38683
1.41636
1.4452
1.47323
1.36669
1.39634
1.42553
1.45443
1.34615
1.37559
1.40466
1.43405
1.32485
1.35379
1.3822
1.41151
1.30251
1.33069
1.35778
1.38584
1.27895
1.30616
1.33145
1.35712
1.25399
1.28016
1.30335
1.32444
1.2275
1.2529
1.27359
1.28899
1.19902
1.22559
1.24227
1.25617
1.17223
1.19581
1.21271
1.22593
1.14406
1.16705
1.18477
1.19914
1.11513
1.13848
1.15788
1.17414
1.08541
1.10961
1.13113
1.14981
1.05466
1.08002
1.10376
1.12525
1.02259
1.04925
1.07514
1.09963
0.988877
1.01684
1.0447
1.07212
0.953226
0.982332
1.01195
1.04192
0.915334
0.945327
0.97637
1.00842
0.874945
0.905505
0.937565
0.971155
0.831861
0.862629
0.895251
0.929833
0.785949
0.816538
0.849239
0.884219
0.737122
0.767121
0.799393
0.834144
0.685328
0.714311
0.745635
0.779523
0.630564
0.658098
0.687951
0.720347
0.572877
0.598535
0.626408
0.656703
0.512383
0.535758
0.561167
0.588789
0.449235
0.469947
0.492445
0.516858
0.383586
0.401283
0.420454
0.441171
0.315654
0.330015
0.345482
0.362065
0.245887
0.256662
0.268136
0.280264
0.175002
0.182082
0.189446
0.197001
0.103069
0.106296
0.109367
0.112143
0.027975
0.0267606
0.0248376
0.0219887
17.4553
1.30676
1.06627
0.868991
0.968759
1.69069
0.612275
76.3289
160.416
27.1663
0.703392
3.51541
4.80177
19.6984
52.537
56.8562
35.5498
36.3766
353.608
1.67539
1.43386
1.31327
1.24901
1.37166
1.87421
2.26883
89.8313
164.282
22.3589
-1.64
25.4227
3.5164
12.6526
51.8441
74.0696
38.2387
38.5308
384.582
1.56752
1.5194
1.47221
1.5356
1.71825
1.89914
6.16842
45.3459
39.0748
15.5067
-1.15832
27.4809
3.0389
3.70943
51.7613
77.7638
40.8964
40.8797
409.489
1.58095
1.55823
1.56616
1.68457
1.88766
2.14006
6.05158
1.05452
1.52245
0.799745
1.28303
29.468
2.299
2.93981
53.204
79.1446
43.9075
41.9976
432.559
1.56562
1.57923
1.61022
1.72024
1.88903
2.0706
2.91697
1.05581
1.04523
0.652078
1.68478
10.0026
0.795915
26.8633
56.0927
76.4666
75.1401
40.7644
453.318
1.56202
1.58562
1.62485
1.71121
1.82603
1.86798
1.34228
1.18495
1.04678
0.933536
7.18319
-0.922304
0.802969
43.1048
56.9206
69.8371
78.5781
37.613
470.306
1.5503
1.58165
1.62342
1.69135
1.76084
1.73641
1.4413
1.34533
1.21878
1.38221
9.15306
1.06691
1.12035
5.86445
18.0502
35.1929
65.5435
31.5658
481.384
1.53708
1.57197
1.61421
1.671
1.71242
1.68532
1.49586
1.47703
1.46142
1.75522
10.6347
3.2041
1.64937
2.86126
3.98397
4.28624
16.3915
42.8762
215.314
1.52272
1.55917
1.60217
1.65522
1.68493
1.64964
1.7132
1.7196
1.73323
2.19931
8.43669
3.63414
5.37545
5.07394
4.08536
4.28137
3.78902
38.0237
37.1722
1.5066
1.54353
1.58853
1.64603
1.67936
1.63944
1.77334
2.05543
2.17103
2.72465
4.04744
3.87543
24.4502
24.1131
7.39694
4.37606
4.53417
14.1171
54.018
1.48877
1.52444
1.57151
1.6414
1.69342
1.66937
1.70439
2.15461
2.59614
3.25136
8.38829
11.8996
26.8324
26.8824
9.51166
4.38647
4.64627
8.27071
447.778
1.46885
1.50009
1.54647
1.63698
1.72521
1.72893
1.68381
1.88102
2.33771
3.16266
4.6444
29.3065
28.3078
25.3023
6.01662
4.35245
4.63187
10.5039
515.566
1.4463
1.4681
1.50447
1.62467
1.77725
1.81317
1.75314
1.69575
1.9413
2.93632
21.1697
30.5021
29.2931
3.64273
4.13313
4.29164
4.70194
12.7199
528.199
1.41928
1.42385
1.43352
1.60059
1.85632
1.92927
1.85896
1.61753
1.69818
4.92448
30.8669
30.6387
6.32189
3.53692
4.10745
4.23651
4.9121
11.579
653.561
1.38822
1.36802
1.31026
1.85786
3.2282
2.02595
1.96589
1.50907
1.72864
21.1866
31.7627
5.0706
3.18406
3.47222
4.08796
4.20638
5.09467
7.06055
730.2
1.3455
1.28582
2.06317
6.54579
7.09994
2.0431
1.87057
1.29127
6.59754
36.689
10.7882
2.46506
3.009
3.43871
4.0357
4.16688
5.05402
4.91291
757.791
1.29281
1.2135
2.63922
6.32615
6.97416
4.91926
1.73466
1.17464
1.85478
37.713
1.60159
2.09871
2.8351
3.38045
3.96889
4.13952
4.91419
4.33136
783.986
1.24402
1.17289
1.91623
4.63419
2.20288
5.16328
1.63879
1.08167
5.95851
25.0639
1.33736
1.785
2.67462
3.33442
3.94514
4.17507
5.04654
4.33964
809.897
1.21307
1.15353
1.09204
0.794243
1.17093
5.04303
3.00945
1.26525
19.7807
1.45758
1.20929
1.67711
2.56748
3.33061
3.9955
4.30809
5.11966
5.34941
836.923
1.19373
1.161
1.01008
0.932001
1.18177
2.02599
2.89538
1.44548
19.9041
10.7798
1.56463
1.70916
2.54034
3.36772
4.12358
4.54464
5.22272
7.70163
863.482
1.17844
1.17152
1.09333
1.07832
1.75371
1.52163
1.95175
1.21477
6.80186
4.79875
2.2635
1.80123
2.55958
3.52919
4.62832
4.86409
5.48108
12.5955
892.145
1.16325
1.17235
1.14229
1.48645
1.9093
1.55403
1.42791
1.4355
3.8623
2.84839
1.28254
1.89394
2.59949
3.80955
4.96567
5.31511
5.89527
11.8353
619.247
1.14655
1.16634
1.16903
1.22734
1.83832
1.88573
1.60348
4.06647
4.71487
2.23681
1.35931
1.98609
2.65286
3.62281
5.02315
5.77557
6.07533
8.23216
27.8563
1.13079
1.15933
1.18369
1.20147
1.29026
1.39137
1.64651
3.77852
3.23466
1.51729
1.54889
2.07324
2.70233
3.49261
5.00781
5.8189
5.97323
5.85175
5.47204
1.10656
1.14458
1.19678
1.26507
1.34916
1.45626
1.68585
1.73902
1.52508
1.46386
1.70317
2.14242
2.73728
3.49576
4.5078
5.69691
5.75849
5.67944
5.48815
1.08035
1.12751
1.18057
1.3272
1.41789
1.50698
1.5996
1.63904
1.60536
1.62258
1.81315
2.19873
2.76046
3.47402
4.22126
5.50669
5.54361
5.45811
5.4963
1.05058
1.10475
1.16592
1.24222
1.33273
1.42339
1.52359
1.62746
1.67204
1.72292
1.89611
2.24482
2.7623
3.41426
4.10294
5.03098
5.26944
5.23923
5.43938
1.01608
1.07573
1.14349
1.22016
1.30545
1.40199
1.51303
1.62611
1.70718
1.78657
1.95422
2.26761
2.72774
3.30848
4.34401
4.94876
5.00647
5.03553
5.43209
0.976623
1.03995
1.11224
1.19416
1.28502
1.38669
1.50136
1.61951
1.72058
1.81909
1.9785
2.25198
2.64708
3.15362
4.59805
5.42279
4.88982
4.8955
6.07716
0.931976
0.997367
1.07217
1.15704
1.25187
1.35846
1.47721
1.59892
1.70926
1.81398
1.95694
2.18855
2.51874
2.95498
4.5139
5.18911
4.70337
5.43469
6.02387
0.881903
0.94775
1.02316
1.10893
1.20557
1.31457
1.43457
1.55548
1.66552
1.76464
1.88515
2.07635
2.34208
2.71205
3.74955
4.93251
4.4836
5.32635
5.95974
0.826301
0.891021
0.96509
1.0494
1.14482
1.25228
1.36875
1.48311
1.58538
1.67147
1.76693
1.91787
2.11263
2.402
3.07969
4.60711
4.64241
5.1273
5.78649
0.765173
0.827247
0.898099
0.978561
1.06948
1.17106
1.2791
1.38206
1.47192
1.54064
1.6087
1.7153
1.82327
2.00386
2.67332
4.20684
4.6918
4.77664
5.18933
0.698648
0.75667
0.822615
0.897086
0.980621
1.07271
1.16859
1.25674
1.3311
1.37864
1.41512
1.46955
1.46607
1.50157
2.06949
3.60687
4.19398
3.77206
4.50604
0.626987
0.679678
0.739218
0.805887
0.879791
0.959775
1.04087
1.11172
1.16786
1.19052
1.19031
1.18513
1.04421
0.898593
1.332
1.93811
2.73797
1.79749
4.07628
0.550518
0.596722
0.648521
0.705844
0.768339
0.834249
0.8985
0.949873
0.984929
0.979259
0.937676
0.869889
0.576097
0.220695
0.569086
1.63186
2.17411
0.313949
133.222
0.469579
0.50826
0.551086
0.597632
0.647057
0.696993
0.742167
0.771536
0.78189
0.743938
0.657608
0.527603
0.103225
-0.478361
0.311654
1.11072
1.77867
-0.0847927
614.498
0.384596
0.414818
0.447511
0.481878
0.516541
0.548518
0.572206
0.577064
0.559043
0.486057
0.356315
0.16271
-0.392759
-1.10798
-0.476905
0.450646
1.54024
0.138673
640.452
0.296479
0.317591
0.339366
0.360645
0.379539
0.392561
0.393839
0.373796
0.326695
0.222206
0.0601015
-0.192274
-0.814633
-1.53977
-1.49739
-0.054358
1.27065
-0.367164
649.218
0.206755
0.218574
0.229277
0.23738
0.240573
0.235043
0.214875
0.171575
0.0976906
-0.030444
-0.210659
-0.494318
-1.06734
-1.76877
-1.63594
-0.293588
0.389621
1.26823
657.936
0.115097
0.117087
0.116033
0.110063
0.0964044
0.0708756
0.0274646
-0.0418307
-0.145861
-0.301298
-0.505755
-0.801607
-1.21467
-1.89145
-1.29799
-0.169815
-0.315207
-2.8368
635.671
0.0168553
0.00691394
-0.00869895
-0.0325185
-0.0681548
-0.120674
-0.196882
-0.305511
-0.45694
-0.666462
-0.929856
-1.2957
-1.61075
-1.84175
-0.554262
-0.617981
-1.0862
-6.05022
302.828
)
;

boundaryField
{
    leftWall
    {
        type            fixedFluxPressure;
        gradient        uniform 0;
        value           nonuniform List<scalar> 
50
(
1524.94
1526.75
1530.49
1536.64
1546.11
1558.04
1573.5
1596.91
1622.91
1584.96
499.985
1.0004
1.04014
1.05398
1.02762
1.00317
0.983511
0.971105
0.962744
0.952592
0.937495
0.917193
0.892193
0.86328
0.832032
0.800313
0.769796
0.741853
0.714569
0.690257
0.669387
0.651285
0.634681
0.618087
0.600088
0.579623
0.55589
0.528409
0.497053
0.462036
0.423872
0.38321
0.340695
0.296861
0.252119
0.206792
0.161108
0.11521
0.069228
0.0231689
)
;
    }
    rightWall
    {
        type            fixedFluxPressure;
        gradient        uniform 0;
        value           nonuniform List<scalar> 
50
(
343.538
357.827
371.386
374.353
388.615
377.926
189.761
181.733
353.608
384.582
409.489
432.559
453.318
470.306
481.384
215.314
37.1722
54.018
447.778
515.566
528.199
653.561
730.2
757.791
783.986
809.897
836.923
863.482
892.145
619.247
27.8563
5.47204
5.48815
5.4963
5.43938
5.43209
6.07716
6.02387
5.95974
5.78649
5.18933
4.50604
4.07628
133.222
614.498
640.452
649.218
657.936
635.671
302.828
)
;
    }
    lowerWall
    {
        type            fixedFluxPressure;
        gradient        uniform 0;
        value           nonuniform List<scalar> 
62
(
1524.94
1524.41
1523.24
1521.33
1518.88
1516.02
1512.8
1509.24
1505.42
1501.39
1497.21
1492.95
1488.67
1484.42
1480.28
1476.32
1472.62
1469.28
1466.45
1464.13
1462.81
1462.64
1460.1
1460.1
1438.17
1404.78
1392.79
1439.31
1427.7
1400.94
716.271
220.178
274.453
276.543
276.168
209.193
223.607
271.219
320.735
302.487
244.128
251.077
162.23
209.193
196.495
115.936
89.2687
122.815
164.383
166.138
144.244
125.499
136.749
217.416
281.341
324.917
347.794
332.262
272.134
288.579
332.874
343.538
)
;
    }
    atmosphere
    {
        type            totalPressure;
        rho             rho;
        psi             none;
        gamma           1;
        p0              uniform 0;
        value           nonuniform List<scalar> 
46
(
0
0
0
0
0
0
0
0
0
0
-1.52873e-05
-8.2309e-05
-0.000210436
-0.000410587
-0.000696843
-0.00108717
-0.00160429
-0.00227664
-0.00313952
-0.00423654
-0.00562121
-0.00735882
-0.00952908
-0.0124326
-0.0163957
-0.02145
-0.0278791
-0.0382251
-0.0559913
-0.0813871
-0.117493
-0.168663
-0.24088
-0.341932
-0.481611
-0.671746
-0.930281
-1.24486
-1.72373
-2.0238
-1.59498
-0.0173792
0
0
0
0
)
;
    }
    defaultFaces
    {
        type            empty;
    }
}


// ************************************************************************* //
