/*--------------------------------*- C++ -*----------------------------------*\
| =========                 |                                                 |
| \\      /  F ield         | OpenFOAM: The Open Source CFD Toolbox           |
|  \\    /   O peration     | Version:  2206                                  |
|   \\  /    A nd           | Website:  www.openfoam.com                      |
|    \\/     M anipulation  |                                                 |
\*---------------------------------------------------------------------------*/
FoamFile
{
    version     2.0;
    format      ascii;
    arch        "LSB;label=32;scalar=64";
    class       volScalarField;
    location    "0.625";
    object      p;
}
// * * * * * * * * * * * * * * * * * * * * * * * * * * * * * * * * * * * * * //

dimensions      [1 -1 -2 0 0 0 0];

internalField   nonuniform List<scalar> 
2268
(
509.723
508.27
509.436
514.052
523.483
538.224
556.795
575.732
594.03
612.672
632.656
653.993
676.23
698.852
721.38
743.311
763.283
780.431
794.115
798.712
796.118
813.732
849.445
450.612
448.621
449.571
454.048
463.291
478.054
496.973
516.254
534.712
553.417
573.366
594.72
617.029
639.728
662.304
684.265
704.628
722.408
738.247
744.188
733.732
742.889
785.297
390.774
388.334
389.094
393.132
401.795
416.515
436.148
456.173
474.98
493.821
513.939
535.433
557.829
580.57
603.088
624.802
645.138
663.446
679.087
688.092
677.3
679.141
723.318
330.805
327.799
328.073
331.383
339.057
353.66
374.412
395.606
414.964
433.989
454.277
475.968
498.546
521.468
544.095
565.779
586.045
604.525
620.087
630.597
626.826
629.015
668.712
271.221
267.416
266.816
268.744
275.493
290.204
312.351
334.783
354.724
373.985
394.488
416.392
439.207
462.434
485.339
507.178
527.569
546.293
562.396
574.75
579.899
586.617
620.476
212.08
207.674
205.247
205.957
212.658
227.834
250.786
273.819
294.084
313.666
334.633
356.739
379.82
403.46
426.799
448.889
469.507
488.619
505.647
520.175
531.484
542.723
573.53
153.14
149.313
144.921
145.2
151.788
167.205
189.897
212.444
232.721
252.654
274.395
296.953
320.413
344.623
368.551
390.927
411.774
431.26
449.151
465.337
480.161
494.366
522.431
93.0601
87.494
81.6002
83.8757
91.4579
106.997
128.447
149.945
170.657
191.5
213.922
236.916
260.808
285.733
310.493
333.256
354.35
374.213
392.839
410.289
427.616
448.641
475.22
793.514
753.832
888.556
1087.03
1171.52
1140.78
1190.11
1081.09
636.893
344.834
231.073
208.62
222.398
235.427
271.432
488.29
978.132
1331.29
1213.8
747.441
658.667
782.345
996.613
1080.18
1067.9
1145.95
940.696
373.289
169.143
155.025
155.08
160.487
174.183
206.337
369.269
811.252
1225.2
1158.39
694.401
588.915
694.965
903.663
980.046
1017.58
1116.9
566.11
197.193
148.204
140.514
137.441
136.748
138.459
144.595
194.968
499.975
1052.47
1095.46
655.916
540.326
617.94
801.528
869.321
968.512
1087.79
296.505
157.167
143.729
139.863
137.187
135.843
135.771
137.127
152.827
269.683
776.158
1019.47
621.258
503.981
550.126
694.239
743.672
856.226
921.538
226.098
149.437
142.396
139.384
136.824
135.472
135.181
135.965
142.163
189.773
463.093
924.608
581.191
473.078
489.312
585.179
603.995
677.544
639.782
194.95
147.064
141.894
138.99
136.364
135.016
134.707
135.305
138.473
158.951
263.779
813.429
545.71
446.396
433.832
470.599
437.234
458.915
430.865
156.365
144.872
141.011
138.294
135.709
134.355
134.089
134.704
136.625
143.734
171.889
683.811
496.674
424.166
380.947
336.811
220.971
159.308
182.525
123.063
140.468
139.137
137.226
134.792
133.437
133.252
134.014
135.516
137.899
140.278
540.141
32.7497
26.8118
21.5715
24.8703
31.9236
41.2145
52.3109
63.8858
78.0332
96.6017
118.56
142.44
167.529
194.275
220.523
243.679
264.873
285.111
304.764
323.619
342.544
363.038
390.394
1.14682
1.02916
0.824846
1.16398
3.56109
5.89219
7.23721
8.46887
11.61
17.5736
26.7475
39.3214
56.1271
77.5628
100.468
123.784
144.776
164.116
184.475
204.257
224.333
247.786
280.579
0.785727
0.743112
0.621511
0.585285
0.633922
0.615924
0.593962
0.579485
0.56963
0.567689
0.712437
1.84192
5.71307
12.4844
22.4973
34.9628
47.4225
59.7035
73.444
87.5881
102.922
120.851
148.997
0.579102
0.539146
0.417519
0.382933
0.466825
0.449552
0.410329
0.390702
0.408937
0.452157
0.49122
0.498238
0.570273
0.651174
0.759945
1.24875
3.28993
5.49808
10.0251
16.103
21.0526
25.9306
31.1249
0.388772
0.374737
0.321184
0.315809
0.338333
0.309404
0.284485
0.271334
0.267957
0.283844
0.322862
0.366325
0.434408
0.494681
0.579988
0.682906
0.775339
0.891416
0.993442
1.11809
1.32238
1.45327
1.17248
0.205968
0.199406
0.179694
0.160751
0.157903
0.158655
0.152388
0.154101
0.167399
0.18833
0.220192
0.258168
0.29961
0.366895
0.435853
0.507302
0.584233
0.686618
0.821062
1.01672
1.30272
1.59262
1.61856
0.0319371
0.0261304
0.0179973
0.00931687
0.010409
0.0057344
0.00556595
0.0102735
0.020539
0.0387962
0.0702241
0.109886
0.151578
0.211569
0.282185
0.362074
0.45072
0.545526
0.648357
0.799319
1.0054
1.27268
1.47419
-0.136545
-0.140954
-0.144052
-0.147902
-0.146986
-0.147731
-0.144647
-0.136709
-0.122482
-0.101121
-0.0737817
-0.0413097
-0.00196857
0.045134
0.0977737
0.161517
0.2291
0.30333
0.394065
0.521175
0.697016
0.885295
1.0035
-0.304568
-0.306567
-0.307144
-0.309407
-0.307806
-0.305167
-0.299624
-0.290388
-0.276636
-0.257715
-0.233015
-0.202758
-0.166674
-0.124259
-0.0760195
-0.021491
0.0377701
0.100263
0.166599
0.243073
0.340898
0.446083
0.525754
-0.471172
-0.471842
-0.471411
-0.471613
-0.469121
-0.465378
-0.458964
-0.449419
-0.43607
-0.418301
-0.395835
-0.368987
-0.33761
-0.301386
-0.260691
-0.215703
-0.166984
-0.115584
-0.0618985
-0.00893835
0.0307595
0.0519149
0.0818926
-0.637388
-0.637423
-0.636396
-0.635306
-0.632291
-0.627926
-0.621294
-0.611935
-0.599364
-0.583271
-0.563544
-0.540215
-0.51324
-0.482655
-0.44891
-0.412419
-0.373616
-0.333118
-0.291927
-0.255243
-0.237289
-0.238473
-0.218711
-0.803735
-0.803333
-0.802061
-0.800404
-0.797266
-0.792764
-0.786386
-0.777781
-0.766618
-0.752677
-0.735849
-0.716183
-0.693801
-0.668888
-0.641817
-0.613019
-0.582978
-0.55234
-0.521915
-0.497399
-0.488908
-0.480355
-0.436219
-0.970362
-0.969794
-0.968486
-0.966661
-0.963684
-0.959504
-0.953802
-0.946327
-0.936854
-0.925235
-0.911445
-0.895601
-0.877871
-0.858514
-0.837932
-0.816542
-0.794914
-0.773853
-0.754676
-0.742032
-0.742098
-0.746394
-0.726498
-1.13741
-1.13684
-1.13565
-1.13395
-1.13135
-1.12778
-1.12303
-1.11693
-1.10935
-1.10023
-1.08959
-1.07759
-1.06443
-1.05043
-1.03605
-1.02176
-1.00819
-0.996155
-0.987503
-0.987179
-0.999236
-1.02271
-1.05643
-1.30493
-1.30443
-1.30348
-1.30208
-1.30004
-1.29727
-1.29365
-1.28909
-1.28352
-1.27696
-1.26949
-1.26128
-1.25261
-1.24384
-1.23544
-1.22802
-1.22229
-1.21914
-1.22034
-1.23031
-1.25388
-1.29328
-1.36391
-1.47286
-1.47249
-1.47183
-1.47087
-1.46949
-1.46764
-1.46525
-1.4623
-1.45879
-1.45478
-1.4504
-1.44588
-1.44154
-1.43779
-1.43519
-1.4344
-1.4363
-1.44195
-1.45308
-1.4734
-1.50844
-1.56308
-1.65319
-1.64111
-1.64089
-1.64056
-1.6401
-1.63944
-1.63856
-1.63745
-1.63613
-1.63465
-1.63311
-1.6317
-1.63069
-1.63044
-1.63143
-1.63429
-1.63977
-1.64888
-1.6629
-1.68369
-1.71451
-1.76083
-1.8293
-1.93257
-1.80954
-1.80949
-1.80949
-1.80954
-1.80962
-1.80972
-1.80988
-1.81014
-1.81061
-1.81142
-1.8128
-1.81505
-1.81859
-1.82393
-1.83176
-1.84293
-1.85854
-1.88001
-1.90933
-1.94953
-2.00532
-2.08339
-2.1935
-1.97798
-1.97809
-1.97841
-1.97898
-1.97978
-1.98084
-1.9822
-1.98397
-1.98626
-1.98925
-1.99318
-1.9984
-2.00532
-2.01453
-2.02674
-2.04285
-2.06402
-2.0917
-2.12788
-2.17537
-2.23817
-2.32195
-2.43455
-2.14626
-2.14652
-2.14716
-2.14822
-2.1497
-2.15164
-2.15413
-2.15727
-2.16122
-2.16616
-2.17238
-2.1802
-2.19009
-2.20261
-2.21851
-2.23871
-2.26434
-2.29684
-2.33806
-2.39046
-2.45735
-2.54345
-2.65436
-2.31421
-2.31461
-2.31553
-2.31705
-2.31915
-2.3219
-2.3254
-2.32977
-2.33517
-2.34183
-2.35
-2.36005
-2.37243
-2.38769
-2.40657
-2.42994
-2.45891
-2.4948
-2.53929
-2.59444
-2.66241
-2.74768
-2.85379
-2.48168
-2.48219
-2.48337
-2.48529
-2.48794
-2.4914
-2.49577
-2.5012
-2.50785
-2.51594
-2.52575
-2.53763
-2.552
-2.56942
-2.59055
-2.61623
-2.64746
-2.68543
-2.73162
-2.78809
-2.85375
-2.93662
-3.03607
-2.64852
-2.64914
-2.65053
-2.6528
-2.65592
-2.65997
-2.66508
-2.67138
-2.67904
-2.6883
-2.69941
-2.71271
-2.7286
-2.7476
-2.77031
-2.79747
-2.82997
-2.86885
-2.91499
-2.97022
-3.03532
-3.1131
-3.20462
-2.81462
-2.81532
-2.8169
-2.81946
-2.82294
-2.82748
-2.83317
-2.84016
-2.84861
-2.85875
-2.87083
-2.88517
-2.90211
-2.92215
-2.94581
-2.97374
-3.0066
-3.04541
-3.09091
-3.14426
-3.20644
-3.27883
-3.36225
-2.97986
-2.98065
-2.98236
-2.98515
-2.98892
-2.99382
-2.99994
-3.00743
-3.01646
-3.02722
-3.03996
-3.05497
-3.07252
-3.09313
-3.11713
-3.14522
-3.17792
-3.21593
-3.25994
-3.31075
-3.36911
-3.4358
-3.51128
-3.14414
-3.14509
-3.14682
-3.14982
-3.15375
-3.1589
-3.16532
-3.17315
-3.18254
-3.19367
-3.20679
-3.22218
-3.2398
-3.26061
-3.28462
-3.31234
-3.34427
-3.38094
-3.4229
-3.47069
-3.52483
-3.58576
-3.65365
-3.30744
-3.30853
-3.31019
-3.31347
-3.31738
-3.32268
-3.32926
-3.33727
-3.34684
-3.35809
-3.3713
-3.38667
-3.4044
-3.4249
-3.44845
-3.47539
-3.50612
-3.54104
-3.58057
-3.62506
-3.67484
-3.73013
-3.79093
-3.46971
-3.47088
-3.47242
-3.47627
-3.47966
-3.48514
-3.49177
-3.49981
-3.50936
-3.52058
-3.53367
-3.5488
-3.56621
-3.58615
-3.6089
-3.63473
-3.66395
-3.69684
-3.73369
-3.77475
-3.8202
-3.87011
-3.92436
-3.63096
-3.63223
-3.63387
-3.63713
-3.64103
-3.64635
-3.6529
-3.66082
-3.67021
-3.6812
-3.69396
-3.70865
-3.72546
-3.7446
-3.7663
-3.79076
-3.81821
-3.84888
-3.88294
-3.92054
-3.96177
-4.00661
-4.05488
-3.79118
-3.79247
-3.79408
-3.79715
-3.80108
-3.80628
-3.81265
-3.82034
-3.82943
-3.84004
-3.85231
-3.86637
-3.88238
-3.90052
-3.92095
-3.94385
-3.96937
-3.99768
-4.02889
-4.06308
-4.10026
-4.14036
-4.18319
-3.95037
-3.95163
-3.95319
-3.95614
-3.95996
-3.96497
-3.97109
-3.97845
-3.98713
-3.99723
-4.00885
-4.02213
-4.03718
-4.05415
-4.07317
-4.09436
-4.11784
-4.14372
-4.17207
-4.20291
-4.23623
-4.27193
-4.3098
-4.10857
-4.10977
-4.11128
-4.11409
-4.11773
-4.1225
-4.12828
-4.13523
-4.1434
-4.15288
-4.16375
-4.17612
-4.19009
-4.20576
-4.22324
-4.24263
-4.264
-4.28742
-4.31293
-4.34053
-4.37016
-4.40174
-4.43507
-4.26583
-4.26695
-4.2684
-4.27105
-4.27446
-4.27892
-4.28431
-4.29078
-4.29836
-4.30713
-4.31715
-4.32852
-4.3413
-4.35559
-4.37146
-4.38898
-4.40821
-4.42917
-4.45189
-4.47634
-4.50246
-4.53017
-4.5593
-4.42224
-4.42325
-4.42463
-4.42709
-4.43023
-4.43434
-4.43928
-4.44521
-4.45213
-4.46012
-4.46922
-4.47951
-4.49104
-4.50389
-4.5181
-4.53372
-4.55079
-4.56932
-4.58931
-4.61073
-4.63351
-4.65758
-4.6828
-4.57786
-4.57874
-4.58005
-4.58228
-4.58513
-4.58885
-4.59329
-4.59863
-4.60484
-4.61199
-4.62011
-4.62927
-4.6395
-4.65086
-4.66339
-4.6771
-4.69203
-4.70818
-4.72552
-4.74403
-4.76365
-4.7843
-4.80586
-4.73279
-4.7335
-4.73473
-4.73672
-4.73924
-4.74254
-4.74645
-4.75116
-4.75662
-4.76288
-4.76998
-4.77797
-4.78687
-4.79672
-4.80755
-4.81937
-4.83219
-4.84601
-4.8608
-4.87654
-4.89316
-4.9106
-4.92875
-4.8871
-4.88764
-4.88875
-4.89049
-4.89266
-4.89551
-4.89885
-4.9029
-4.90756
-4.91291
-4.91897
-4.92576
-4.93331
-4.94164
-4.95078
-4.96072
-4.97148
-4.98303
-4.99537
-5.00845
-5.02223
-5.03665
-5.05163
-5.04091
-5.04128
-5.04225
-5.04371
-5.04551
-5.04788
-5.05061
-5.05398
-5.05783
-5.06224
-5.06722
-5.0728
-5.07898
-5.0858
-5.09325
-5.10134
-5.11007
-5.11943
-5.1294
-5.13994
-5.15101
-5.16258
-5.17458
-5.19433
-5.19453
-5.19534
-5.1965
-5.19791
-5.19981
-5.20187
-5.20456
-5.20757
-5.21102
-5.21491
-5.21926
-5.22407
-5.22936
-5.23514
-5.2414
-5.24815
-5.25536
-5.26303
-5.27113
-5.27962
-5.28847
-5.29762
-5.34743
-5.34747
-5.34811
-5.34896
-5.34998
-5.35142
-5.35263
-5.35476
-5.3569
-5.35937
-5.36216
-5.36527
-5.36871
-5.37248
-5.3766
-5.38105
-5.38584
-5.39096
-5.39639
-5.40211
-5.40809
-5.41433
-5.42077
-5.50023
-5.50018
-5.50061
-5.50112
-5.50174
-5.50261
-5.50333
-5.50458
-5.50589
-5.50739
-5.50907
-5.51093
-5.513
-5.51526
-5.51772
-5.52038
-5.52324
-5.52629
-5.52953
-5.53293
-5.53649
-5.54018
-5.544
-5.65285
-5.65276
-5.65292
-5.6531
-5.6533
-5.6536
-5.65383
-5.65425
-5.65469
-5.65519
-5.65575
-5.65638
-5.65707
-5.65782
-5.65864
-5.65952
-5.66047
-5.66148
-5.66256
-5.66368
-5.66485
-5.66607
-5.66733
406.701
425.555
446.128
456.843
311.746
332.506
352.593
369.866
188.413
219.335
250.048
276.668
52.6689
101.567
161.487
193.689
3.64638
12.8322
30.632
50.3205
1.54756
1.88569
2.83306
5.55502
1.45473
1.38003
1.32506
1.5983
1.03049
1.03944
1.05547
1.04626
0.590825
0.646895
0.707214
0.747383
0.168818
0.259918
0.373976
0.486368
-0.142378
-0.0557244
0.0632431
0.193171
-0.378579
-0.328179
-0.251859
-0.148497
-0.701081
-0.686238
-0.664255
-0.620747
-1.08505
-1.11816
-1.1738
-1.25308
-1.45646
-1.54553
-1.68424
-1.88952
-1.78502
-1.90731
-2.08172
-2.31827
-2.06666
-2.18476
-2.34239
-2.54603
-2.31841
-2.42015
-2.54744
-2.70315
-2.55063
-2.63874
-2.7417
-2.86158
-2.76202
-2.84042
-2.9284
-3.02673
-2.95215
-3.02206
-3.09863
-3.18203
-3.12456
-3.18634
-3.25292
-3.32432
-3.28373
-3.33819
-3.39614
-3.45761
-3.43272
-3.4807
-3.53124
-3.58435
-3.57383
-3.61605
-3.66014
-3.70611
-3.709
-3.7461
-3.78456
-3.82439
-3.83981
-3.87236
-3.90591
-3.94044
-3.96745
-3.99599
-4.02525
-4.0552
-4.09283
-4.11784
-4.14338
-4.1694
-4.21658
-4.2385
-4.26081
-4.28347
-4.33913
-4.35833
-4.37783
-4.3976
-4.46075
-4.47752
-4.49454
-4.51176
-4.58164
-4.59623
-4.611
-4.62595
-4.70207
-4.71464
-4.72736
-4.74023
-4.8223
-4.833
-4.84383
-4.85478
-4.94256
-4.95153
-4.96061
-4.96978
-5.06299
-5.07037
-5.07783
-5.08536
-5.18366
-5.18955
-5.1955
-5.20151
-5.30454
-5.30903
-5.31357
-5.31815
-5.42563
-5.42878
-5.43197
-5.43519
-5.54688
-5.54874
-5.55063
-5.55253
-5.66828
-5.6689
-5.66952
-5.67015
459.141
399.567
304.395
129.037
-94.2858
-310.74
-206.339
74.5989
130.292
135.213
134.963
132.846
131.629
131.65
132.663
134.129
135.512
134.635
350.581
387.959
350.414
236.57
96.0782
-150.106
-424.01
-282.559
66.496
124.568
130.502
130.873
129.486
128.87
129.349
130.718
132.47
134.01
132.632
231.921
309.38
267.432
164.278
122.584
56.6071
-22.9648
71.043
107.694
123.281
127.319
127.328
126.675
126.619
127.542
129.262
131.227
132.75
132.343
181.795
205.887
169.867
129.797
124.771
111.42
97.5096
111.693
120.869
124.661
125.99
125.262
124.841
125.218
126.55
128.602
130.768
132.274
132.865
176.885
77.6994
127.892
128.978
126.569
125.231
121.81
124.358
125.771
126.424
126.122
124.794
124.126
124.564
126.286
128.811
131.454
133.389
135.767
191.332
26.0418
115.021
123.155
129.367
133.954
132.503
130.344
128.854
128.258
127.219
125.834
124.607
124.131
125.056
128.173
132.941
137.522
145.291
221
4.16352
39.7362
88.2188
131.152
135.818
135.955
133.795
131.226
130.17
129.16
128.052
126.369
123.361
119.39
120.825
130.9
143.166
165.733
258.724
1.07588
5.39542
35.6105
84.4581
129.645
137.015
135.804
133.173
132.481
132.914
132.426
129.228
122.009
109.176
98.8785
116.847
137.084
148.27
274.488
0.781654
0.976204
5.30111
24.3377
86.4435
124.881
138.38
136.547
136.054
137.374
138.148
135.036
113.186
80.428
41.2421
52.894
104.633
127.373
242.279
0.633833
0.797807
1.10963
5.16391
26.1716
78.7897
138.65
130.726
137.344
143.268
148.091
162.617
178.644
99.6942
-19.1353
-55.4404
-13.459
34.2018
124.6
0.397928
0.72682
1.09606
0.903022
2.55456
22.9837
85.4309
129.667
170.943
179.441
240.259
229.954
175.744
102.753
-27.893
-78.4298
-55.3378
-37.65
35.5258
0.0470908
0.396087
0.75452
0.762374
-1.54755
-0.661692
36.0526
95.2868
149.274
152.785
147.505
124.728
97.5802
77.0184
-23.8034
-65.7852
-38.7954
-0.0963189
37.0844
-0.523172
-0.510842
-0.743844
0.313327
11.112
-18.4078
-15.2934
30.8189
72.7439
83.4985
89.9273
86.4012
71.6879
47.8925
-30.6784
-61.4118
-19.9277
24.7534
59.8419
-1.45256
-2.12876
-2.976
-3.65597
-4.69339
-1.79965
8.39771
14.576
9.01466
32.7864
54.9837
54.5528
45.9636
28.0691
-25.4897
-51.9245
9.73776
54.2379
75.8834
-2.37704
-3.30229
-3.86817
-4.22616
-4.40974
-4.66816
-4.7531
-5.01946
-3.59436
-1.15378
1.94607
4.25395
7.25471
13.4821
-5.09585
-16.7863
52.8734
93.2634
86.4468
-2.83476
-3.63164
-4.09587
-4.30513
-4.33071
-4.2027
-4.29364
-4.74948
-4.90203
-4.57787
-4.67085
-4.62732
-3.54618
-2.92241
-4.80084
7.92205
82.9536
119.64
75.8253
-2.96376
-3.61343
-4.04302
-4.24854
-4.34692
-4.4291
-4.47359
-4.72523
-5.11474
-5.22728
-5.19246
-5.3374
-5.31476
-5.433
-5.27455
-2.83312
25.0732
93.9605
60.3482
-3.00956
-3.50543
-3.8966
-4.1336
-4.27514
-4.39145
-4.54616
-4.87712
-5.33399
-5.57212
-5.646
-5.79681
-5.9399
-5.94448
-5.62744
-4.35291
2.85386
31.0398
68.1541
-3.08924
-3.46117
-3.79643
-4.04933
-4.23688
-4.39975
-4.59755
-4.91118
-5.31834
-5.67093
-5.95525
-6.23722
-6.46293
-6.39199
-5.94975
-5.04033
-1.9692
9.00604
48.8086
-3.20741
-3.4981
-3.77975
-4.02156
-4.2262
-4.41621
-4.62278
-4.88571
-5.22261
-5.61248
-6.01331
-6.37495
-6.69467
-6.63799
-6.20472
-5.43116
-3.98779
-1.20343
20.6975
-3.33209
-3.56839
-3.80618
-4.02561
-4.2251
-4.41589
-4.61518
-4.84513
-5.12472
-5.46302
-5.85097
-6.23936
-6.53057
-6.53227
-6.18622
-5.55415
-4.85448
-4.38954
6.51839
-3.45123
-3.64772
-3.84994
-4.04531
-4.23063
-4.41042
-4.5939
-4.79352
-5.02096
-5.28126
-5.57299
-5.87122
-6.10444
-6.12286
-5.87226
-5.42266
-5.00069
-4.56021
3.45426
-3.56588
-3.73145
-3.90383
-4.07506
-4.24176
-4.40531
-4.57008
-4.74173
-4.9244
-5.11648
-5.30927
-5.48066
-5.59178
-5.5734
-5.38546
-5.11543
-4.85553
-4.8043
-2.18611
-3.67717
-3.81751
-3.96408
-4.11188
-4.25824
-4.40343
-4.54931
-4.6977
-4.84756
-4.99144
-5.11397
-5.1915
-5.19255
-5.10396
-4.91485
-4.74455
-4.59345
-4.56623
-3.1161
-3.78587
-3.90504
-4.02923
-4.15532
-4.28172
-4.40886
-4.53767
-4.66763
-4.79436
-4.90594
-4.98332
-5.00376
-4.94511
-4.80206
-4.59306
-4.45876
-4.28497
-4.19192
-2.58452
-3.89303
-3.99434
-4.0993
-4.20601
-4.31402
-4.42483
-4.53957
-4.65635
-4.7679
-4.85786
-4.90489
-4.89132
-4.8016
-4.63847
-4.43446
-4.32028
-4.13118
-4.04062
-2.86598
-3.99959
-4.08585
-4.17447
-4.26435
-4.35627
-4.45328
-4.5573
-4.66562
-4.76946
-4.84635
-4.87113
-4.83561
-4.73312
-4.57154
-4.39394
-4.29985
-4.23338
-4.00268
-3.06218
-4.10627
-4.17992
-4.25484
-4.3305
-4.40889
-4.49502
-4.59145
-4.69514
-4.79801
-4.8687
-4.87671
-4.82391
-4.71458
-4.55995
-4.41165
-4.33016
-4.30916
-4.00242
-3.18097
-4.2136
-4.27677
-4.34041
-4.40428
-4.47135
-4.54877
-4.63892
-4.74024
-4.84709
-4.91567
-4.91328
-4.84356
-4.72832
-4.57763
-4.44676
-4.34779
-4.31867
-4.1207
-3.2602
-4.32184
-4.37634
-4.43083
-4.48501
-4.54233
-4.61119
-4.69322
-4.79017
-4.9012
-4.96718
-4.9548
-4.87675
-4.75827
-4.61231
-4.49423
-4.39597
-4.30346
-4.29246
-3.64067
-4.43099
-4.47826
-4.52532
-4.57163
-4.6203
-4.67931
-4.74932
-4.83482
-4.943
-5.00338
-4.98575
-4.90896
-4.79233
-4.65985
-4.5575
-4.50568
-4.37929
-4.3605
-3.65507
-4.54084
-4.58195
-4.62287
-4.66302
-4.70407
-4.75214
-4.80683
-4.87326
-4.96588
-5.01516
-5.00014
-4.93211
-4.82845
-4.72293
-4.64869
-4.61214
-4.51703
-4.44771
-3.87132
-4.65119
-4.6869
-4.72254
-4.75754
-4.79245
-4.83049
-4.87074
-4.91811
-4.97544
-5.00835
-4.99852
-4.95176
-4.88214
-4.81352
-4.75804
-4.7287
-4.67435
-4.71582
-5.11374
-4.76197
-4.79281
-4.82368
-4.85419
-4.88416
-4.91457
-4.94449
-4.97549
-5.00415
-5.01974
-5.01766
-4.99613
-4.95625
-4.90922
-4.86187
-4.83306
-4.78564
-4.78904
-4.21725
-4.87329
-4.89961
-4.92605
-4.95228
-4.97804
-5.00314
-5.02707
-5.04805
-5.06329
-5.06889
-5.07441
-5.06779
-5.03693
-4.99419
-4.95396
-4.93356
-4.89965
-4.90783
-4.32834
-4.9853
-5.00741
-5.02966
-5.05174
-5.07351
-5.09445
-5.11368
-5.12982
-5.14224
-5.15307
-5.15295
-5.14243
-5.1161
-5.07892
-5.0495
-5.04765
-5.03487
-5.05168
-4.56654
-5.09811
-5.1163
-5.13459
-5.15269
-5.17058
-5.18759
-5.20287
-5.21576
-5.22541
-5.23176
-5.23133
-5.22209
-5.20087
-5.16987
-5.15191
-5.1703
-5.17348
-5.18879
-4.79682
-5.21169
-5.22619
-5.24076
-5.25513
-5.26938
-5.28284
-5.29455
-5.30456
-5.31247
-5.31745
-5.31716
-5.31155
-5.29437
-5.26489
-5.25193
-5.27468
-5.28277
-5.33359
-5.08605
-5.32591
-5.33696
-5.34805
-5.35887
-5.36984
-5.3804
-5.38905
-5.39675
-5.4037
-5.4083
-5.40566
-5.40441
-5.3899
-5.36301
-5.35866
-5.37599
-5.37666
-5.50316
-5.06384
-5.44065
-5.44843
-5.45633
-5.4644
-5.4718
-5.47964
-5.48623
-5.49207
-5.49934
-5.50437
-5.49893
-5.50433
-5.48768
-5.46207
-5.48974
-5.51101
-5.50687
-5.77608
-4.11591
-5.55577
-5.56039
-5.56509
-5.56995
-5.57472
-5.57991
-5.58528
-5.58987
-5.5997
-5.60218
-5.60724
-5.63494
-5.61079
-5.57447
-5.62133
-5.65838
-5.68941
-5.84015
-5.76516
-5.67122
-5.67274
-5.67431
-5.67603
-5.67815
-5.68085
-5.68487
-5.68972
-5.70239
-5.69806
-5.7317
-5.76179
-5.73958
-5.72632
-5.75545
-5.77968
-5.79445
-5.92099
-5.8749
)
;

boundaryField
{
    leftWall
    {
        type            calculated;
        value           nonuniform List<scalar> 
50
(
509.723
450.612
390.774
330.805
271.221
212.08
153.14
93.0601
32.7497
1.14682
0.785727
0.579102
0.388772
0.205968
0.0319371
-0.136545
-0.304568
-0.471172
-0.637388
-0.803735
-0.970362
-1.13741
-1.30493
-1.47286
-1.64111
-1.80954
-1.97798
-2.14626
-2.31421
-2.48168
-2.64852
-2.81462
-2.97986
-3.14414
-3.30744
-3.46971
-3.63096
-3.79118
-3.95037
-4.10857
-4.26583
-4.42224
-4.57786
-4.73279
-4.8871
-5.04091
-5.19433
-5.34743
-5.50023
-5.65285
)
;
    }
    rightWall
    {
        type            calculated;
        value           nonuniform List<scalar> 
50
(
1213.8
1158.39
1095.46
1019.47
924.608
813.429
683.811
540.141
350.581
231.921
181.795
176.885
191.332
221
258.724
274.488
242.279
124.6
35.5258
37.0844
59.8419
75.8834
86.4468
75.8253
60.3482
68.1541
48.8086
20.6975
6.51839
3.45426
-2.18611
-3.1161
-2.58452
-2.86598
-3.06218
-3.18097
-3.2602
-3.64067
-3.65507
-3.87132
-5.11374
-4.21725
-4.32834
-4.56654
-4.79682
-5.08605
-5.06384
-4.11591
-5.76516
-5.8749
)
;
    }
    lowerWall
    {
        type            calculated;
        value           nonuniform List<scalar> 
62
(
539.152
537.699
538.865
543.481
552.912
567.653
586.224
605.161
623.459
642.101
662.086
683.423
705.659
728.282
750.809
772.74
792.713
809.768
821.754
825.904
825.276
843.119
878.832
849.445
785.297
723.318
668.712
620.476
573.53
522.431
475.22
469.296
488.15
508.723
519.438
793.514
747.441
694.401
655.916
621.258
581.191
545.71
496.674
805.903
777.216
917.984
1116.45
1198.81
1154.67
1203.37
1103.8
661.094
369.114
255.339
233.988
248.138
261.281
297.353
514.264
1004.17
1357.33
1237.12
)
;
    }
    atmosphere
    {
        type            calculated;
        value           nonuniform List<scalar> 
46
(
-5.72904
-5.72904
-5.72904
-5.72904
-5.72904
-5.72904
-5.72904
-5.72904
-5.72904
-5.72904
-5.72904
-5.72904
-5.72904
-5.72904
-5.72904
-5.72904
-5.72904
-5.72904
-5.72904
-5.72904
-5.72904
-5.72904
-5.72904
-5.72904
-5.72904
-5.72904
-5.72904
-5.72904
-5.72904
-5.72904
-5.7291
-5.73009
-5.73174
-5.73509
-5.74105
-5.75294
-5.74433
-5.79013
-5.82322
-5.80731
-5.79721
-5.83003
-5.8382
-5.85048
-6.01614
-5.79474
)
;
    }
    defaultFaces
    {
        type            empty;
    }
}


// ************************************************************************* //
