/*--------------------------------*- C++ -*----------------------------------*\
| =========                 |                                                 |
| \\      /  F ield         | OpenFOAM: The Open Source CFD Toolbox           |
|  \\    /   O peration     | Version:  2206                                  |
|   \\  /    A nd           | Website:  www.openfoam.com                      |
|    \\/     M anipulation  |                                                 |
\*---------------------------------------------------------------------------*/
FoamFile
{
    version     2.0;
    format      ascii;
    arch        "LSB;label=32;scalar=64";
    class       volScalarField;
    location    "0.5";
    object      alpha.water;
}
// * * * * * * * * * * * * * * * * * * * * * * * * * * * * * * * * * * * * * //

dimensions      [0 0 0 0 0 0 0];

internalField   nonuniform List<scalar> 
2268
(
0.999999
0.999999
1
1
1
1
1
1
1
1
1
1
1
1
1
1
1
1
0.993374
0.88782
0.887769
0.971267
0.998866
0.999999
1
1
1
1
1
1
1
1
1
1
1
1
1
1
1
1
1
1
0.96198
0.888486
0.973561
0.998872
1
1
1
1
1
1
1
1
1
1
1
1
1
1
1
1
1
1
1
0.999967
0.889382
0.958379
0.998888
1
1
1
1
1
1
1
1
1
1
1
1
1
1
1
1
1
1
1
1
0.940501
0.971534
0.999046
1
1
1
1
1
1
1
1
1
1
1
1
1
1
1
1
1
1
1
1
0.9997
0.999491
0.999695
1
1
1
1
1
1
1
1
1
1
1
1
1
1
1
1
1
1
1
1
1
1
0.999715
1
1
1
0.999999
0.999999
0.999999
1
1
1
1
1
1
1
1
1
1
1
1
1
1
1
1
0.999716
1
1
0.999995
0.999975
0.99997
0.999984
0.999995
0.999999
1
1
1
1
1
1
1
1
1
1
1
1
1
1
0.999716
2.83102e-15
2.83102e-15
1.22038e-13
2.82311e-13
2.55852e-14
-2.39625e-09
1.66466e-07
3.12393e-05
0.000994601
0.0874844
0.295493
0.323342
0.319843
0.419486
0.495955
0.541499
0.563832
0.573332
0.528396
1.27081e-13
7.49495e-13
5.77523e-12
-7.91529e-14
-1.09865e-13
-5.69618e-09
4.90605e-06
0.00178497
0.0254283
0.0315321
0.00634985
3.50873e-05
0.000105714
0.000404049
0.00159337
0.0910409
0.354504
0.570358
0.642114
2.15681e-13
3.78867e-10
7.63233e-10
3.70922e-12
-2.09122e-13
1.51863e-11
2.59255e-05
0.00548975
0.0225279
0.00110339
9.95107e-06
1.06187e-05
1.32415e-05
5.58586e-05
0.000342554
0.00156994
0.00559944
0.168997
0.642274
1.26866e-11
2.24453e-08
5.026e-08
1.30689e-09
1.51863e-11
1.82804e-09
0.000858206
0.0101274
0.00987772
9.94959e-06
9.94983e-06
7.29105e-06
4.20693e-06
3.5167e-06
1.29071e-05
0.00030137
0.00206051
0.0932665
0.545337
1.68554e-09
4.43956e-07
1.57195e-06
3.44232e-07
1.82804e-09
5.65621e-07
0.00110472
0.00935787
0.00265344
9.94959e-06
7.29174e-06
4.207e-06
3.52514e-06
2.06261e-06
1.77368e-07
-2.9181e-06
0.000338937
0.0830632
0.700916
1.4439e-05
2.71064e-06
0.000409202
1.86406e-05
5.65621e-07
1.30009e-05
0.0041278
0.00826538
0.000208135
1.9189e-05
9.41292e-06
6.07326e-06
2.07584e-06
9.02766e-07
8.19835e-07
8.29331e-07
7.5258e-07
0.0441087
0.782839
1.05787e-05
0.0163609
0.00665608
4.95383e-05
0.000906124
0.00388682
0.0064879
0.00687957
4.90276e-05
3.48487e-05
8.89709e-05
0.000143733
5.57481e-06
1.53921e-06
8.89962e-07
8.23904e-07
8.5807e-07
0.0142585
0.783502
0.202055
0.135331
0.0072722
0.000192522
0.00274515
0.00388039
0.00363582
0.00177109
7.00258e-05
4.90276e-05
0.000956501
0.000234469
1.77903e-05
4.96083e-06
4.21728e-06
8.90488e-07
8.61677e-07
0.00352812
0.767551
1
0.999977
0.982241
0.942852
0.951881
0.97624
0.991442
0.997688
0.999958
0.999992
0.999998
1
1
1
1
1
1
1
1
1
1
1
0.999854
0.886851
0.657882
0.39484
0.25984
0.313103
0.408249
0.464763
0.517567
0.597734
0.682812
0.768816
0.850872
0.923095
0.98008
1
1
1
1
1
1
1
1
1
0.104232
1.46383e-10
1.54619e-11
1.49448e-13
1.37554e-14
1.50121e-14
1.92853e-14
2.32066e-13
8.24056e-12
0.0235564
0.058156
0.108293
0.180725
0.287372
0.463217
0.71963
0.980062
1
1
1
1
1
1
3.0063e-14
1.26232e-12
1.33214e-13
6.07589e-15
1.35351e-14
1.37554e-14
1.50121e-14
1.92853e-14
2.32066e-13
8.24056e-12
9.2174e-11
1.61305e-09
6.30523e-09
1.47254e-07
2.12158e-06
0.0324223
0.122889
0.328085
0.640535
0.970513
1
1
1
9.15691e-19
2.70269e-13
4.8809e-14
6.17793e-15
4.02635e-14
4.43408e-13
1.27478e-12
3.49224e-11
1.0942e-09
2.50228e-09
2.96745e-09
3.05055e-09
3.05963e-09
6.30523e-09
1.47254e-07
2.12158e-06
1.32999e-05
0.0103381
0.0457276
0.125331
0.284428
0.578629
0.930468
8.94731e-19
9.15691e-19
2.70463e-18
1.75451e-14
1.05491e-12
3.30294e-12
5.85902e-12
5.96359e-12
6.55505e-09
6.78704e-08
7.31574e-08
3.05798e-09
3.47167e-09
4.4409e-05
0.000184844
0.000251158
0.000272263
7.83653e-05
8.2093e-05
8.66737e-05
0.00994331
0.0312839
0.118481
2.30723e-19
1.22676e-16
1.62461e-14
3.22008e-13
2.14978e-12
6.13945e-12
9.58835e-12
7.9016e-12
6.90078e-09
1.19168e-07
1.3356e-07
3.60082e-09
3.98234e-09
5.81715e-05
0.000176642
0.000137418
4.89237e-05
7.67911e-05
0.000151946
0.000216042
0.000101454
9.09249e-05
6.52221e-05
1.81115e-20
2.02199e-17
9.70772e-15
3.20839e-13
2.38521e-12
6.99667e-12
1.08685e-11
1.03157e-11
2.35421e-09
8.56779e-08
1.33666e-07
8.39109e-08
5.32503e-08
1.95724e-05
2.49527e-11
2.38069e-12
2.14671e-12
5.23204e-12
9.92389e-05
0.000238661
0.0002924
0.00028183
5.34635e-05
0
1.78129e-18
3.83669e-15
2.10983e-13
2.02475e-12
6.79392e-12
1.09808e-11
1.14236e-11
1.14462e-11
1.49578e-08
1.10296e-07
1.80296e-07
1.27423e-06
3.11685e-11
2.38069e-12
2.16538e-12
1.93603e-12
2.14671e-12
8.95743e-05
9.94445e-05
0.000295606
0.000295606
0.000295606
-2.70359e-18
1.30982e-19
1.17903e-15
9.88174e-14
1.11522e-12
4.51804e-12
1.05471e-11
1.90775e-11
8.60382e-10
2.31048e-09
2.32293e-09
8.59623e-08
3.43499e-07
2.92935e-08
2.00629e-12
1.6158e-12
1.5673e-12
1.17744e-05
0.000163858
0.000262707
0.000183787
0.000182657
0.000230145
-3.74552e-18
0
2.93108e-16
3.58515e-14
4.42325e-13
2.22682e-12
7.7203e-12
9.35845e-12
4.78573e-10
3.54123e-09
3.23022e-09
1.61111e-09
1.59937e-09
1.59722e-09
1.39231e-10
1.32596e-12
1.44454e-12
1.26981e-05
3.65083e-05
0.000247668
0.000264244
0.000187021
0.000128269
-4.21004e-18
-8.27902e-18
5.57584e-17
1.01135e-14
1.35651e-13
8.16379e-13
4.89441e-12
8.1915e-12
8.31495e-11
3.80336e-09
3.86918e-09
3.28308e-09
3.08699e-09
1.94542e-09
3.40466e-11
1.30238e-12
1.31153e-12
3.04637e-12
5.87441e-10
1.26795e-05
0.000247396
0.000293733
0.000294016
-4.10787e-18
-1.16736e-17
8.20503e-18
2.22792e-15
3.30179e-14
2.47673e-13
2.90409e-12
8.75842e-12
1.48382e-11
1.7616e-09
3.24964e-09
4.66666e-09
4.66652e-09
6.3406e-10
1.30238e-12
1.30238e-12
1.31676e-12
1.3478e-12
3.10623e-12
8.92381e-11
4.05019e-09
0.000201965
0.000293733
-3.62075e-18
-1.05575e-17
0
3.92165e-16
6.54308e-15
6.88345e-14
1.59262e-12
7.92695e-12
9.12766e-12
4.62747e-12
4.95111e-10
3.76974e-09
1.97753e-09
3.94716e-11
1.55393e-12
1.35443e-12
2.05163e-12
2.22187e-12
2.23715e-12
3.54273e-12
5.79929e-12
1.62296e-11
9.60172e-06
-2.85819e-18
-8.25748e-18
-3.35991e-18
5.23457e-17
1.05655e-15
1.6772e-14
5.72923e-13
4.18608e-12
7.42768e-12
4.46039e-12
3.75597e-11
4.68447e-10
4.85191e-13
2.3786e-12
2.20239e-12
1.05829e-12
2.38189e-12
4.37758e-12
6.03225e-12
6.02483e-12
6.08112e-12
6.47591e-12
1.24692e-11
-1.99853e-18
-5.67447e-18
-6.24657e-18
4.78466e-18
1.3552e-16
3.59781e-15
1.40577e-13
1.37176e-12
3.53935e-12
3.95779e-12
9.57169e-13
4.85191e-13
4.85016e-13
6.60048e-13
8.38055e-13
1.67399e-13
1.34244e-13
1.79062e-12
8.20961e-12
1.45087e-11
1.77022e-11
1.77146e-11
1.7808e-11
-1.2217e-18
-3.36088e-18
-4.63528e-18
0
1.30902e-17
6.94814e-16
2.79704e-14
2.94607e-13
9.20123e-13
1.34737e-12
1.45689e-12
7.74767e-13
4.62968e-13
2.60835e-13
1.06746e-13
2.67344e-14
1.07546e-14
3.69329e-14
3.3604e-13
3.444e-12
1.59388e-11
3.38189e-11
6.29949e-11
-6.41312e-19
-1.69758e-18
-2.70398e-18
-3.60809e-19
8.57525e-19
1.17549e-16
4.54045e-15
4.60657e-14
1.70366e-13
3.59885e-13
5.77753e-13
4.07058e-13
1.13339e-13
1.92455e-14
3.95196e-15
1.50968e-15
1.35929e-15
8.56005e-15
6.97231e-14
5.30197e-13
3.46477e-12
1.62824e-11
5.26806e-11
-2.82179e-19
-7.15832e-19
-1.2917e-18
-3.12035e-19
3.75115e-20
1.65775e-17
6.21467e-16
6.24941e-15
2.76292e-14
6.56431e-14
8.24656e-14
6.56138e-14
2.6516e-14
4.72748e-15
3.75675e-16
7.02118e-17
1.41741e-16
1.5735e-15
1.75629e-14
1.39866e-13
1.09048e-12
1.09634e-11
6.08272e-11
-1.00827e-19
-2.44542e-19
-4.89906e-19
-1.30954e-19
1.53754e-21
1.88172e-18
7.55376e-17
8.22552e-16
4.00774e-15
9.45165e-15
1.08703e-14
8.875e-15
4.19187e-15
8.96067e-16
5.7618e-17
9.11411e-19
1.21688e-17
3.04836e-16
4.82136e-15
4.76024e-14
3.63819e-13
3.58386e-12
2.92121e-11
-2.80338e-20
-6.48842e-20
-1.41028e-19
-3.77241e-20
4.66923e-23
1.643e-19
8.26168e-18
1.04715e-16
4.98937e-16
1.17164e-15
1.35249e-15
1.06363e-15
5.21795e-16
1.20903e-16
7.06043e-18
-1.62899e-18
3.99406e-19
5.78181e-17
1.34454e-15
1.85308e-14
1.42528e-13
7.46849e-13
4.86255e-12
-5.69969e-21
-1.25594e-20
-2.88176e-20
-7.53469e-21
2.22146e-41
9.56307e-21
7.18957e-19
1.15252e-17
5.47519e-17
1.15865e-16
1.33334e-16
1.04287e-16
4.48414e-17
5.7757e-18
-2.37479e-18
-3.23465e-18
0
8.21929e-18
3.34942e-16
6.03754e-15
5.90944e-14
2.97727e-13
1.28032e-12
-7.63e-22
-1.59531e-21
-3.78655e-21
-9.64262e-22
-1.05011e-22
3.07223e-22
4.14101e-20
8.85079e-19
4.33802e-18
8.39039e-18
1.00304e-17
7.84491e-18
2.63033e-18
-1.02191e-18
-3.37163e-18
-3.5768e-18
-1.24334e-18
1.14716e-18
8.15999e-17
1.72499e-15
2.01563e-14
1.18049e-13
5.5902e-13
-5.28382e-23
-1.03445e-22
-2.60261e-22
-6.43455e-23
-9.85447e-24
1.5281e-24
1.19369e-21
3.64086e-20
1.9385e-19
3.85414e-19
4.72258e-19
2.50724e-19
-3.08413e-19
-1.44093e-18
-2.56773e-18
-2.10451e-18
-8.69635e-19
1.93637e-19
1.89603e-17
4.62323e-16
6.25383e-15
4.08685e-14
2.14644e-13
-3.16396e-25
-7.26264e-30
-2.28362e-28
-3.68496e-27
-2.83634e-26
0
7.18692e-24
5.60214e-22
3.95341e-21
8.15015e-21
-8.23367e-22
-6.06298e-20
-3.10923e-19
-8.101e-19
-1.03912e-18
-7.68135e-19
-3.17612e-19
3.76583e-20
4.14808e-18
1.14486e-16
1.7803e-15
1.215e-14
5.79925e-14
-1.22292e-27
-3.30603e-30
-1.13578e-28
-2.26929e-27
-3.19646e-26
-3.21279e-25
-2.23241e-24
-1.21963e-23
-8.81046e-23
-7.63571e-22
-5.7607e-21
-3.18513e-20
-1.14846e-19
-2.33059e-19
-2.64273e-19
-1.81541e-19
-7.15391e-20
8.23038e-21
8.4933e-19
2.53979e-17
4.48402e-16
3.18437e-15
1.34758e-14
-3.91564e-30
-1.12584e-30
-3.99024e-29
-8.21412e-28
-1.2273e-26
-1.40286e-25
-1.23548e-24
-8.67675e-24
-5.43869e-23
-3.29856e-22
-1.79237e-21
-7.57827e-21
-2.20057e-20
-3.93988e-20
-4.09082e-20
-2.61027e-20
-8.99128e-21
2.57338e-21
1.57991e-19
5.22203e-18
1.05754e-16
7.40649e-16
2.24494e-15
-1.6915e-32
-2.7389e-31
-9.96098e-30
-2.0628e-28
-3.11084e-27
-3.6614e-26
-3.41011e-25
-2.54118e-24
-1.55468e-23
-8.05894e-23
-3.51596e-22
-1.19374e-21
-2.88042e-21
-4.54774e-21
-4.1243e-21
-2.32502e-21
-5.11964e-22
6.74531e-22
2.62277e-20
1.32488e-18
3.24112e-17
1.4881e-16
1.21488e-16
-1.0649e-33
-4.28045e-32
-1.58331e-30
-3.2122e-29
-4.69443e-28
-5.39072e-27
-4.96169e-26
-3.66027e-25
-2.15056e-24
-1.00119e-23
-3.68058e-23
-1.05576e-22
-2.25371e-22
-3.16214e-22
-2.29457e-22
-1.01017e-22
3.88297e-25
1.11451e-22
4.1103e-21
2.91651e-19
7.00327e-18
2.99709e-17
1.88088e-17
-9.83701e-35
-3.32671e-33
-1.23512e-31
-2.34679e-30
-3.06051e-29
-3.03749e-28
-2.39275e-27
-1.53851e-26
-8.21682e-26
-3.668e-25
-1.35513e-24
-3.98086e-24
-8.45044e-24
-1.06889e-23
-6.33517e-24
-1.922e-24
7.36681e-25
1.56312e-23
5.23233e-22
4.66721e-20
1.27678e-18
5.88816e-18
3.81919e-18
-1.62728e-36
-2.06082e-35
-8.38911e-34
-1.73741e-32
-2.51143e-31
-2.81501e-30
-2.54569e-29
-1.90163e-28
-1.18569e-27
-6.13912e-27
-2.55823e-26
-7.90068e-26
-1.48914e-25
-9.74825e-26
-3.37484e-26
1.6247e-26
5.71056e-26
1.44343e-24
5.28532e-23
5.79863e-21
2.04207e-19
1.10853e-18
7.67625e-19
-1.35262e-38
-5.0523e-38
-2.54662e-36
-6.35502e-35
-1.10538e-33
-1.49073e-32
-1.61891e-31
-1.44474e-30
-1.06085e-29
-6.2626e-29
-2.78568e-28
-8.0755e-28
-1.10472e-27
-5.61603e-28
-1.68211e-28
2.28029e-29
3.50394e-27
1.10166e-25
4.29923e-24
5.22403e-22
2.71763e-20
1.92752e-19
1.29277e-19
-7.02666e-41
-9.95492e-41
-6.14979e-39
-1.8174e-37
-3.7493e-36
-5.99174e-35
-7.65479e-34
-7.90433e-33
-6.48536e-32
-3.98289e-31
-1.59459e-30
-3.03151e-30
-1.42405e-30
-3.9164e-31
5.45372e-33
3.79388e-30
1.99956e-28
7.47692e-27
3.4215e-25
4.34001e-23
3.05637e-21
2.4949e-20
1.24976e-20
-2.37937e-43
-7.75768e-44
-6.56707e-42
-2.4648e-40
-6.34033e-39
-1.22801e-37
-1.83213e-36
-2.07757e-35
-1.66932e-34
-7.95733e-34
-1.3059e-33
-5.13816e-34
-1.20337e-34
3.86316e-39
3.52943e-34
1.88676e-31
1.0838e-29
5.22387e-28
2.75098e-26
3.10896e-24
2.62812e-22
2.38218e-21
4.22961e-22
-5.10152e-46
-2.37798e-47
-2.69286e-45
-1.22517e-43
-3.66938e-42
-7.7006e-41
-1.10395e-39
-9.65649e-39
-3.76306e-38
-1.21594e-38
-6.63155e-39
-3.82176e-38
-6.0742e-39
3.32836e-41
1.23547e-35
9.63608e-33
5.79039e-31
3.1542e-29
1.7507e-27
1.39774e-25
1.38794e-23
1.60302e-22
7.48734e-24
-6.16906e-49
-4.74359e-52
-1.22884e-50
-3.47666e-49
-3.47759e-48
-4.65979e-48
-4.59638e-46
-3.56676e-44
-1.89044e-42
-6.53603e-41
-1.3238e-39
-1.18556e-38
-3.81457e-39
4.63068e-43
2.91319e-37
3.40773e-34
2.59529e-32
1.4453e-30
8.02396e-29
5.03198e-27
5.30416e-25
8.56005e-24
2.03176e-25
-2.92693e-52
-1.45443e-55
-2.35105e-56
-1.1671e-53
-3.20493e-51
-5.50668e-49
-6.39531e-47
-5.11829e-45
-2.79194e-43
-9.90534e-42
-2.04876e-40
-1.85703e-39
-5.63639e-40
5.9141e-45
5.25089e-39
8.39061e-36
7.93556e-34
5.21634e-32
2.6136e-30
1.74146e-28
1.80603e-26
4.2854e-25
1.44645e-25
3.30393e-72
-3.56574e-62
-3.60275e-58
-1.7743e-55
-4.78241e-53
-8.009e-51
-8.99899e-49
-6.8503e-47
-3.42457e-45
-1.02319e-43
-1.39976e-42
-3.25509e-43
0
4.53113e-47
4.42505e-41
1.26536e-37
1.70745e-35
1.15229e-33
8.15276e-32
6.22684e-30
3.0566e-28
1.43634e-26
1.41269e-25
2.64266e-75
-4.30716e-64
-5.65136e-60
-2.59643e-57
-6.07811e-55
-8.39678e-53
-7.4434e-51
-4.35627e-49
-1.71175e-47
-4.48538e-46
-6.48341e-45
-1.78604e-45
-1.70504e-44
-1.8029e-43
9.38489e-44
7.85932e-40
1.44876e-37
1.49636e-35
1.33709e-33
1.02131e-31
6.82403e-30
4.61501e-28
9.55946e-27
-1.42839e-81
-1.67061e-70
-1.85554e-64
-1.0574e-61
-2.6606e-59
-3.47744e-57
-2.3759e-55
-7.1401e-54
-9.51047e-53
-1.25519e-50
-1.20436e-48
-7.94885e-47
-3.25495e-45
-6.29124e-44
9.78627e-50
5.90223e-44
5.14697e-41
8.92761e-39
1.95631e-36
2.75119e-34
4.62592e-32
5.53259e-30
1.30847e-28
-1.86341e-82
-9.0716e-78
-7.1807e-73
-4.19919e-70
-5.63965e-68
-5.31373e-69
-1.79615e-66
-7.08429e-64
-2.0007e-61
-3.98956e-59
-5.37269e-57
-4.42509e-55
-1.70992e-53
-1.66173e-53
1.34082e-65
1.30795e-51
4.23237e-48
1.20431e-44
8.50772e-42
4.12225e-39
3.50776e-36
6.31734e-34
4.38407e-33
0
0
-2.62493e-87
-6.67636e-83
-3.37438e-79
-8.61201e-76
-1.38027e-72
-1.4792e-69
-1.06608e-66
-4.9793e-64
-1.36589e-61
-1.67625e-59
-4.41754e-61
0
4.24476e-74
2.38684e-60
4.72793e-53
3.32507e-49
3.43117e-46
2.5584e-43
7.70274e-41
1.86331e-38
2.30462e-36
0.999945
0.997694
0.999999
0.999959
0.999996
0.999999
1
0.845975
1
1
1
0.492144
1
1
1
0.336646
0.997174
0.999997
1
0.432187
0.45454
0.930548
0.999984
0.649425
0.00816392
0.20896
0.86553
0.910252
4.48078e-05
3.67178e-05
0.101489
0.831849
9.68671e-05
3.64046e-05
3.65586e-05
0.0734542
6.89915e-05
3.64051e-05
3.64046e-05
3.65586e-05
5.85807e-05
4.26432e-05
0.000239429
0.000137415
0.000295513
0.000296724
0.000296512
3.14647e-05
0.000254379
0.000215742
1.38155e-05
3.64447e-09
2.58215e-05
8.42486e-06
3.64466e-09
3.64466e-09
2.03481e-11
1.44204e-10
4.03308e-09
4.0548e-09
1.80311e-11
2.08287e-11
4.61503e-09
4.93585e-09
5.54671e-10
2.31043e-09
4.16374e-09
4.61352e-09
1.60956e-10
4.17136e-10
7.42528e-10
1.07719e-09
1.43529e-10
1.83931e-10
1.73214e-10
2.00473e-09
1.03139e-10
1.59989e-10
1.60098e-10
2.14648e-09
4.07067e-11
1.32449e-10
2.72597e-10
4.81982e-10
1.64717e-11
7.97797e-11
1.54412e-10
1.77858e-10
6.3165e-12
3.126e-11
8.87966e-11
1.82705e-10
2.57259e-12
1.2912e-11
5.13687e-11
1.66937e-10
9.28863e-13
6.36167e-12
4.46988e-11
1.47429e-10
3.5195e-13
3.13064e-12
3.26262e-11
1.183e-10
1.49163e-13
1.39613e-12
1.40799e-11
6.14519e-11
6.2941e-14
7.23182e-13
6.42552e-12
2.76465e-11
2.35501e-14
4.31782e-13
4.02013e-12
4.14589e-12
8.16875e-15
2.22176e-13
1.11132e-12
3.87831e-12
4.38322e-15
7.70421e-14
1.04189e-13
3.57062e-12
1.34725e-15
2.19946e-14
3.06459e-13
8.71462e-12
1.06031e-16
5.53098e-15
2.55984e-13
5.57119e-12
5.91077e-18
9.88338e-16
2.06395e-13
8.94797e-12
5.39248e-19
1.91811e-16
7.04982e-14
2.57575e-12
3.60792e-20
7.54498e-18
8.86493e-15
2.79231e-13
1.66788e-21
1.13243e-19
1.233e-15
4.29036e-14
5.2388e-23
1.88484e-21
1.7243e-16
4.94131e-15
5.72564e-25
1.39024e-22
1.53864e-17
3.78455e-16
1.26715e-26
3.60568e-24
7.29065e-19
1.89302e-17
5.55555e-30
6.96622e-25
1.78714e-20
3.50944e-19
6.88363e-32
1.17558e-27
4.06754e-26
-2.42058e-31
0.761595
0.11874
0.000289838
0.000166428
0.000615786
0.0014087
0.00122557
0.000699612
0.000587861
0.00143493
0.00147544
0.000405591
6.57739e-05
0.000111036
1.7691e-05
1.27658e-06
9.45199e-07
1.49822e-06
0.736656
0.27188
0.00174262
0.000629416
5.91103e-05
0.000166496
0.00937141
0.01845
0.0153542
0.00629053
0.00107795
0.000732367
0.000616223
0.000864067
0.000299672
4.96181e-06
2.44993e-06
1.49822e-06
7.97044e-06
0.811421
0.00258384
0.000278809
0.000443774
2.61329e-05
0.000343539
0.0070319
0.0461702
0.034605
0.00183881
0.00176235
0.00107795
0.00364979
0.00153863
1.41764e-05
4.11587e-06
3.51186e-06
2.43631e-06
0.0366277
0.879719
0.000179471
1.79756e-05
8.92401e-05
1.26174e-05
0.000121153
2.53924e-05
0.0405479
0.0138585
0.000420764
0.047214
0.0143333
0.00405822
0.000191913
0.00013429
7.81294e-06
8.74525e-06
2.90508e-06
0.340295
0.914422
1.79777e-05
3.94152e-06
5.2885e-06
3.94489e-06
6.4224e-06
6.48119e-06
0.0150377
0.00868152
0.000116769
0.156214
0.305861
0.000433834
0.000356883
0.000149484
5.95813e-05
5.53602e-05
2.90508e-06
0.600911
0.922145
0.00773291
3.07673e-06
3.23234e-06
3.30192e-06
3.50609e-06
3.7794e-06
6.48122e-06
2.68977e-05
7.16624e-05
0.0866219
0.567827
0.0713491
0.0983812
0.318379
0.114837
9.21108e-05
4.52771e-05
0.743374
0.923922
0.551677
3.07673e-06
3.07599e-06
3.23234e-06
3.28698e-06
3.50611e-06
3.7794e-06
1.629e-05
3.67065e-05
7.16624e-05
0.456525
0.924092
0.931555
0.931674
0.754954
0.105193
0.232998
0.86277
0.924678
0.831128
0.624816
0.263725
0.326887
0.536126
0.566152
0.523215
0.42359
0.372818
0.495713
0.860488
0.931188
0.931674
0.931711
0.931684
0.901765
0.907894
0.924678
0.924696
0.394501
0.584046
0.789424
0.800404
0.805628
0.811431
0.819245
0.828223
0.837401
0.843737
0.845985
0.81028
0.697984
0.704827
0.844587
0.924268
0.92467
0.924696
0.924696
0.00339127
0.0726234
0.23222
0.396865
0.540754
0.560944
0.536684
0.495087
0.443508
0.361581
0.230001
0.107039
0.063282
0.0663878
0.0885333
0.271299
0.811996
0.92467
0.924696
9.14967e-09
3.5917e-08
5.46403e-08
0.002568
0.0175261
0.0208863
0.0174482
0.0104759
0.00373024
0.000265492
9.52255e-05
0.000264951
0.000437729
0.0004407
0.000625522
0.00176731
0.347814
0.907118
0.924558
4.06105e-09
3.27255e-07
4.50325e-08
4.67766e-07
1.04311e-06
2.71235e-06
4.64068e-06
6.61729e-06
9.44971e-06
2.98171e-05
6.83104e-05
0.000231146
0.00105851
0.000625522
0.00225928
0.00488464
0.402014
0.906067
0.924212
3.9523e-09
7.06122e-09
2.22994e-08
7.2484e-09
2.12454e-08
7.09156e-08
2.17811e-07
5.64632e-07
3.45917e-06
1.04459e-05
2.78617e-05
0.000215742
0.0540889
0.238191
0.336393
0.430669
0.808307
0.905322
0.841226
3.64443e-09
3.64483e-09
3.65288e-09
3.8636e-09
9.08747e-09
2.26555e-08
9.14543e-08
2.76637e-07
5.81591e-07
2.65872e-06
3.44497e-05
0.000510773
0.234168
0.835998
0.913629
0.911269
0.913805
0.905039
0.832746
3.8035e-09
3.65389e-09
3.65977e-09
3.7827e-09
2.001e-07
9.75689e-07
8.83156e-07
5.40404e-07
6.69728e-07
2.81352e-06
4.76819e-05
0.000762259
0.266803
0.829403
0.913724
0.913805
0.913805
0.913805
0.907026
4.57969e-09
3.65977e-09
3.66132e-09
3.77263e-09
2.73936e-07
1.85942e-06
1.87619e-06
6.649e-07
6.05931e-07
1.89389e-05
0.000288894
0.000313575
0.00273961
0.478238
0.913629
0.913724
0.907362
0.913642
0.913679
4.59908e-09
5.84619e-09
8.04116e-09
5.79406e-09
1.0344e-08
7.46665e-07
1.87529e-06
1.67563e-06
5.04731e-07
3.01156e-06
1.52292e-05
3.64503e-05
0.00660091
0.445558
0.880619
0.63933
0.32867
0.6361
0.80006
9.26805e-09
3.47758e-08
4.58434e-08
2.25024e-08
5.75646e-09
8.04208e-09
8.09389e-07
1.73165e-06
4.91743e-07
5.01465e-07
1.05616e-06
2.2644e-05
0.0171266
0.513531
0.856006
0.460106
0.164012
0.162426
0.205699
3.3172e-08
4.58434e-08
4.58434e-08
4.29825e-08
5.75646e-09
5.75646e-09
4.4887e-07
1.16566e-06
4.89305e-07
4.90368e-07
6.16559e-07
1.05653e-05
0.0020216
0.370641
0.821351
0.744636
0.251073
0.162459
0.162418
1.598e-08
3.18433e-08
3.82262e-08
2.07477e-08
1.51485e-08
5.86168e-09
2.31687e-07
5.42655e-07
8.19566e-07
8.46756e-07
7.71156e-07
3.93441e-06
0.000206495
0.0959663
0.372287
0.559922
0.347068
0.166371
0.185481
3.22009e-10
6.42148e-10
1.09886e-09
5.52885e-10
6.45557e-09
1.2636e-07
1.26494e-07
2.22179e-07
8.13555e-07
6.88899e-07
6.92293e-07
0.000114787
0.00212869
0.000284578
0.000281331
0.00962754
0.165458
0.381205
0.381201
2.3352e-10
7.69187e-10
1.09268e-09
4.45338e-10
1.01446e-09
3.57125e-07
1.92373e-07
1.53362e-07
3.01251e-07
9.66786e-08
1.07798e-05
3.88137e-05
0.000955079
0.000263255
0.000231076
0.000227147
0.0128046
0.234674
0.381207
2.88165e-10
1.66706e-09
3.02298e-09
8.40803e-10
8.44147e-10
1.56392e-07
2.61979e-07
1.76326e-07
8.34371e-08
9.77545e-08
1.67681e-05
1.09196e-06
0.000492988
0.00145602
0.000227147
0.000226345
0.000227147
0.000437977
0.3812
2.61191e-10
1.48394e-09
2.99219e-09
8.44147e-10
6.18564e-08
4.24916e-08
3.28651e-06
9.24522e-07
6.848e-08
6.69377e-08
1.44934e-05
3.71664e-07
0.000185303
0.00148756
0.000544026
0.000226345
0.000226345
0.00335902
0.380911
1.68867e-10
4.22003e-10
2.08813e-09
5.94339e-09
8.55406e-08
5.7863e-08
3.80424e-06
1.13262e-07
6.69302e-08
6.69377e-08
6.09393e-07
2.85929e-07
1.82851e-06
0.00148756
0.00109404
0.000226477
0.000232252
0.000458649
0.316932
1.36797e-10
1.22121e-10
4.94585e-10
7.84654e-10
6.78158e-08
4.17581e-08
4.19563e-08
1.09357e-05
7.03188e-06
1.00107e-07
2.04609e-07
2.80733e-07
2.85923e-07
0.00133169
0.00133535
0.000321777
0.000267529
0.000321871
0.299263
9.54892e-11
9.69437e-11
1.33589e-10
1.75009e-09
4.74549e-08
4.30448e-08
4.17134e-08
3.97027e-05
4.51712e-05
5.25119e-06
2.80733e-07
2.80733e-07
2.80733e-07
0.000279463
0.000350152
0.000267227
0.00370102
0.000346127
0.298302
3.50776e-11
7.32198e-11
1.94219e-09
4.12804e-08
1.74647e-06
1.89977e-07
4.41649e-08
2.47145e-05
4.51712e-05
3.52573e-05
2.96613e-07
2.80733e-07
2.96613e-07
3.15771e-07
1.1966e-06
8.97765e-06
0.0201035
0.000435043
0.25795
1.79512e-11
1.20254e-09
4.63478e-06
5.64195e-05
0.000150661
0.00011206
7.60228e-06
5.48071e-06
4.15778e-05
6.04124e-05
1.73672e-05
1.51756e-05
3.15771e-07
1.14573e-06
1.27028e-06
0.0099606
0.0211142
0.000875735
0.212308
1.39661e-10
9.85266e-09
2.64235e-05
0.000228604
0.000229071
0.000228952
5.81477e-05
5.3136e-06
4.22575e-05
6.0735e-05
6.07033e-05
6.08369e-05
4.35349e-05
1.296e-06
1.29169e-06
0.0410493
0.0206261
0.0014111
0.185495
1.631e-11
3.94162e-10
2.61396e-05
0.000151446
0.000228659
0.000229071
0.000153686
5.18622e-06
2.58388e-05
6.0735e-05
6.08737e-05
6.10048e-05
6.08369e-05
2.01286e-07
0.00781964
0.0465619
0.0156415
0.00196794
0.182707
1.12326e-11
3.02262e-12
2.14692e-10
1.38018e-08
5.7736e-05
0.000227941
0.000221594
2.70456e-06
8.18838e-06
5.81023e-05
5.10454e-05
6.09283e-05
6.09626e-05
1.80457e-07
0.0155843
0.0470251
0.0158576
0.00516027
0.184432
1.25595e-11
6.15787e-13
2.81809e-13
4.51257e-11
1.95018e-09
3.79869e-05
0.000168287
1.49517e-06
1.74367e-06
2.01683e-05
2.11373e-05
3.70277e-05
1.69512e-05
1.26082e-07
0.0131566
0.0475
0.0148495
0.00472011
0.173063
4.07585e-11
6.68611e-13
4.04782e-15
2.76836e-13
4.52025e-11
1.95103e-09
3.18151e-08
4.11183e-06
1.2325e-06
7.70021e-06
2.86855e-05
6.90962e-06
1.25786e-07
1.16312e-07
0.0172036
0.0478931
0.0167536
0.00470828
0.103479
8.13142e-12
1.00939e-12
-4.81767e-17
-5.8365e-14
5.4051e-10
5.29055e-07
3.67596e-06
8.30899e-06
9.4433e-07
9.13418e-06
2.85183e-05
7.59492e-06
1.15718e-07
1.16279e-07
0.0273558
0.0480563
0.021077
0.00472011
0.0989746
2.04524e-13
3.84561e-14
-4.5891e-14
-2.83813e-13
4.86089e-10
3.98982e-06
1.03303e-05
8.45153e-06
5.85102e-07
6.05298e-06
2.03437e-05
1.92324e-06
1.15718e-07
1.15718e-07
0.0366831
0.0480562
0.0239808
0.0047968
0.152781
3.71847e-14
2.05054e-14
-3.82949e-18
-6.79842e-12
3.64494e-10
3.66812e-06
1.03303e-05
1.01268e-05
4.18175e-07
2.71569e-07
5.07654e-07
5.71464e-08
1.12689e-07
1.16279e-07
0.0323733
0.0480563
0.0257533
0.00494629
0.200884
3.82292e-15
1.55708e-15
2.72713e-16
2.5336e-15
8.45769e-12
1.11991e-09
3.32807e-06
9.93525e-06
4.36145e-06
3.31046e-08
2.77637e-09
2.81247e-08
3.86466e-08
1.76859e-07
0.0264781
0.0480171
0.0316013
0.00888931
0.202275
2.60748e-16
6.21863e-17
1.15509e-17
1.53767e-16
1.70918e-13
1.29659e-11
6.27394e-08
2.3362e-06
4.36802e-06
3.84321e-07
4.1544e-10
2.77637e-09
7.69378e-09
0.000563465
0.00280317
0.0473739
0.0366817
0.0185
0.202275
9.549e-18
4.96288e-19
2.76355e-20
2.05483e-17
9.49359e-16
1.33102e-13
9.89785e-12
3.72473e-10
2.39528e-07
4.70978e-07
2.52704e-10
4.26113e-05
5.88784e-05
0.000747072
3.65718e-07
0.00806549
0.0267461
0.0253519
0.202275
1.00386e-19
-2.05822e-20
-5.02796e-19
5.1482e-20
8.73592e-17
1.1518e-14
9.73135e-14
5.01038e-12
7.03433e-11
2.91677e-08
1.21525e-10
5.0247e-05
5.56779e-05
2.0253e-05
1.08905e-09
3.88227e-11
0.000860935
1.40374e-13
0.154777
-4.49487e-28
-1.52727e-25
-8.81621e-40
4.34147e-23
3.34363e-20
4.74597e-17
4.06667e-15
1.55924e-13
7.14111e-12
6.56786e-11
1.21525e-10
8.98957e-06
1.84596e-06
3.97391e-24
5.0251e-27
-7.75482e-27
0
9.78728e-41
0.0181313
)
;

boundaryField
{
    leftWall
    {
        type            zeroGradient;
    }
    rightWall
    {
        type            zeroGradient;
    }
    lowerWall
    {
        type            zeroGradient;
    }
    atmosphere
    {
        type            inletOutlet;
        inletValue      uniform 0;
        value           nonuniform List<scalar> 
46
(
0
0
0
0
0
0
0
0
0
0
0
0
0
0
0
0
0
3.32507e-49
3.43117e-46
2.5584e-43
7.70274e-41
1.86331e-38
2.30462e-36
6.88363e-32
1.17558e-27
0
0
0
0
0
4.34147e-23
3.34363e-20
4.74597e-17
4.06667e-15
1.55924e-13
7.14111e-12
6.56786e-11
1.21525e-10
8.98957e-06
0
0
0
0
0
0
0.0181313
)
;
    }
    defaultFaces
    {
        type            empty;
    }
}


// ************************************************************************* //
