/*--------------------------------*- C++ -*----------------------------------*\
| =========                 |                                                 |
| \\      /  F ield         | OpenFOAM: The Open Source CFD Toolbox           |
|  \\    /   O peration     | Version:  2206                                  |
|   \\  /    A nd           | Website:  www.openfoam.com                      |
|    \\/     M anipulation  |                                                 |
\*---------------------------------------------------------------------------*/
FoamFile
{
    version     2.0;
    format      ascii;
    arch        "LSB;label=32;scalar=64";
    class       surfaceScalarField;
    location    "0.5";
    object      alphaPhi0.water;
}
// * * * * * * * * * * * * * * * * * * * * * * * * * * * * * * * * * * * * * //

dimensions      [0 3 -1 0 0 0 0];

oriented        oriented;

internalField   nonuniform List<scalar> 
4432
(
-3.82029e-06
3.82029e-06
-5.28519e-06
1.4649e-06
-3.23951e-06
-2.04569e-06
1.04742e-06
-4.28692e-06
6.55538e-06
-5.50796e-06
1.21213e-05
-5.56593e-06
1.68512e-05
-4.72987e-06
2.03462e-05
-3.495e-06
2.26267e-05
-2.28052e-06
2.38978e-05
-1.27107e-06
2.43738e-05
-4.76023e-07
2.41805e-05
1.93251e-07
2.33356e-05
8.44924e-07
2.17788e-05
1.55683e-06
1.92601e-05
2.51869e-06
1.53476e-05
3.91246e-06
9.60441e-06
5.74324e-06
2.28951e-06
7.3149e-06
-3.61757e-06
6.30604e-06
-8.80991e-06
5.12973e-06
-1.58688e-05
6.99432e-06
-1.63222e-05
-1.25769e-06
-1.63345e-05
-4.09975e-06
7.92005e-06
-4.96134e-06
2.32649e-06
-2.76074e-06
-4.24629e-06
1.50805e-06
-8.55572e-06
6.94692e-06
-1.09468e-05
1.24443e-05
-1.10633e-05
1.70942e-05
-9.37982e-06
2.05086e-05
-6.90935e-06
2.27341e-05
-4.50602e-06
2.39982e-05
-2.53518e-06
2.45455e-05
-1.02333e-06
2.46087e-05
1.30051e-07
2.43901e-05
1.06352e-06
2.3978e-05
1.96886e-06
2.33942e-05
3.10254e-06
2.24162e-05
4.89047e-06
2.02839e-05
7.8755e-06
1.55131e-05
1.20858e-05
7.0334e-06
1.47857e-05
-3.63807e-06
1.66868e-05
-1.11775e-05
1.4452e-05
-9.87091e-06
-3.12208e-06
-2.62179e-05
-3.49059e-06
1.14106e-05
-4.06247e-06
2.89838e-06
-1.90687e-06
-6.40188e-06
2.11525e-06
-1.25778e-05
7.33161e-06
-1.61632e-05
1.26759e-05
-1.64076e-05
1.71587e-05
-1.38626e-05
2.03816e-05
-1.01322e-05
2.24453e-05
-6.56973e-06
2.36208e-05
-3.71072e-06
2.41481e-05
-1.55066e-06
2.41996e-05
7.85917e-08
2.38738e-05
1.38935e-06
2.32672e-05
2.57542e-06
2.24953e-05
3.87447e-06
2.17712e-05
5.61458e-06
2.13524e-05
8.29433e-06
2.05378e-05
1.29004e-05
1.68563e-05
1.84671e-05
9.18692e-06
2.43586e-05
3.56039e-08
2.35086e-05
-1.34756e-06
-1.7442e-06
-2.75788e-05
-2.60097e-06
1.40116e-05
-2.77233e-06
3.06974e-06
-7.66726e-07
-8.40749e-06
2.77215e-06
-1.61167e-05
7.63369e-06
-2.10247e-05
1.27853e-05
-2.15592e-05
1.70845e-05
-1.81618e-05
2.00958e-05
-1.31435e-05
2.19825e-05
-8.45643e-06
2.30704e-05
-4.7987e-06
2.36136e-05
-2.09384e-06
2.37564e-05
-6.4169e-08
2.35813e-05
1.56442e-06
2.31292e-05
3.02756e-06
2.2432e-05
4.5717e-06
2.15908e-05
6.45573e-06
2.0946e-05
8.93914e-06
2.10879e-05
1.27584e-05
2.12658e-05
1.82893e-05
1.97592e-05
2.58652e-05
1.51953e-05
2.85462e-05
8.53121e-06
5.65082e-06
-1.90401e-05
-1.41777e-06
1.54294e-05
-9.38533e-07
2.59051e-06
8.65752e-07
-1.02118e-05
3.94885e-06
-1.91998e-05
8.32659e-06
-2.54025e-05
1.30621e-05
-2.62947e-05
1.69795e-05
-2.20792e-05
1.96726e-05
-1.58366e-05
2.13637e-05
-1.01476e-05
2.23941e-05
-5.82907e-06
2.29941e-05
-2.69386e-06
2.32759e-05
-3.46008e-07
2.32916e-05
1.54875e-06
2.30693e-05
3.24993e-06
2.26258e-05
5.0152e-06
2.20161e-05
7.06535e-06
2.13627e-05
9.59254e-06
2.11943e-05
1.29268e-05
2.21954e-05
1.72882e-05
2.40689e-05
2.39917e-05
2.37447e-05
2.89312e-05
1.50555e-05
1.43962e-05
-3.98342e-06
6.3831e-08
1.53656e-05
1.76117e-06
8.93169e-07
3.84649e-06
-1.22971e-05
6.86398e-06
-2.22173e-05
1.05793e-05
-2.91178e-05
1.43144e-05
-3.00298e-05
1.73047e-05
-2.50694e-05
1.93495e-05
-1.78814e-05
2.07082e-05
-1.15062e-05
2.16644e-05
-6.78529e-06
2.23612e-05
-3.39067e-06
2.28365e-05
-8.21359e-07
2.30804e-05
1.30489e-06
2.30915e-05
3.2388e-06
2.28791e-05
5.22762e-06
2.25185e-05
7.42593e-06
2.21238e-05
9.98727e-06
2.18732e-05
1.31774e-05
2.23402e-05
1.68211e-05
2.45043e-05
2.18277e-05
2.57049e-05
2.77306e-05
1.79354e-05
2.21657e-05
1.3947e-05
2.36259e-06
1.3003e-05
5.62332e-06
-2.36757e-06
9.16791e-06
-1.58417e-05
1.26106e-05
-2.566e-05
1.52059e-05
-3.17131e-05
1.70655e-05
-3.18893e-05
1.84756e-05
-2.64795e-05
1.95398e-05
-1.89457e-05
2.03944e-05
-1.23608e-05
2.11611e-05
-7.55198e-06
2.18734e-05
-4.10303e-06
2.24908e-05
-1.43876e-06
2.2965e-05
8.30744e-07
2.32293e-05
2.97445e-06
2.32437e-05
5.21322e-06
2.30816e-05
7.58802e-06
2.28941e-05
1.01748e-05
2.27923e-05
1.32793e-05
2.28626e-05
1.67508e-05
2.40893e-05
2.0601e-05
2.52989e-05
2.65209e-05
1.98381e-05
2.76265e-05
3.378e-05
4.67072e-06
8.33225e-06
1.07299e-05
-8.42671e-06
1.68692e-05
-2.19807e-05
2.05348e-05
-2.93245e-05
2.11211e-05
-3.2298e-05
2.04285e-05
-3.11956e-05
2.00715e-05
-2.61221e-05
2.02761e-05
-1.91502e-05
2.07834e-05
-1.28681e-05
2.1409e-05
-8.17756e-06
2.20683e-05
-4.76238e-06
2.26689e-05
-2.03928e-06
2.30791e-05
4.20461e-07
2.34506e-05
2.60296e-06
2.36127e-05
5.0511e-06
2.36579e-05
7.54284e-06
2.36819e-05
1.01508e-05
2.3756e-05
1.32052e-05
2.38353e-05
1.66715e-05
2.43381e-05
2.00982e-05
2.48353e-05
2.60237e-05
2.05032e-05
3.19587e-05
5.42781e-05
-2.1426e-23
4.91508e-25
5.49318e-19
-5.49361e-19
7.10437e-17
-6.76439e-17
6.21773e-18
1.64293e-18
1.33258e-16
6.98345e-19
-1.29544e-11
1.50219e-11
-2.65976e-09
2.50267e-09
-1.19536e-07
9.24695e-08
-2.39181e-06
1.7527e-06
-4.90502e-05
4.91098e-06
-9.08452e-05
4.49603e-06
-9.42268e-05
-4.61443e-07
-9.26932e-05
-1.4092e-06
-0.000100699
-3.60933e-06
-9.87791e-05
-7.94547e-06
-8.74534e-05
-1.56089e-05
-6.52294e-05
-2.53873e-05
-2.33458e-05
-4.48333e-05
-2.83892e-05
-1.41385e-18
1.02456e-17
-4.19186e-15
3.61621e-15
2.32327e-15
-9.41073e-15
1.04093e-16
2.37324e-15
-4.58623e-19
-5.47135e-19
-6.94975e-10
7.14315e-10
-7.3731e-08
7.12374e-08
-2.39179e-06
1.04582e-06
-1.2397e-05
4.91188e-06
-6.29819e-06
5.58615e-07
-1.48673e-07
-6.36294e-09
-5.89395e-07
-2.37586e-08
-1.93042e-06
-7.87961e-08
-5.33862e-06
-2.37931e-07
-1.24691e-05
-9.30436e-07
-3.5248e-05
-4.16639e-06
-5.47231e-05
-1.52507e-05
-3.26393e-05
-6.96887e-05
-5.96078e-05
-7.43395e-15
7.445e-15
-5.75842e-13
2.56315e-13
7.64304e-14
-1.04191e-12
3.13738e-14
4.4853e-14
2.63457e-14
8.85392e-17
-6.57696e-09
7.2914e-09
-1.60864e-07
2.15904e-07
-3.46249e-06
3.0395e-06
-2.87864e-06
1.02626e-06
-1.44816e-08
9.56e-07
-2.06828e-08
-3.94133e-10
-4.18184e-08
-2.75559e-09
-1.13175e-07
-8.1319e-09
-3.28108e-07
-2.48593e-08
-1.15995e-06
-1.10511e-07
-4.53618e-06
-8.97154e-07
-1.39452e-05
-6.19799e-06
-3.12512e-05
-5.64097e-05
-8.93883e-05
-8.62715e-13
8.70175e-13
-3.20004e-11
1.30238e-11
1.10805e-11
-6.95847e-11
3.12436e-12
7.48459e-12
3.11851e-12
3.5456e-14
-2.11695e-08
2.84253e-08
-1.23315e-06
7.57377e-07
-3.13479e-06
4.02065e-06
-7.87554e-07
2.2842e-08
-4.57829e-09
1.72792e-07
-4.62568e-09
-6.34546e-10
-4.6363e-09
-3.0144e-09
-1.17985e-08
-1.22784e-09
-3.5986e-08
-9.86181e-10
-1.35027e-07
-8.25067e-09
-8.98502e-07
-1.39484e-07
-4.47505e-06
-2.70208e-06
-2.14762e-05
-4.5185e-05
-0.000115993
-4.1946e-11
6.28664e-11
-1.34984e-09
1.00102e-09
3.4357e-10
-2.57592e-09
6.79021e-11
1.25484e-11
-2.47494e-10
3.19471e-10
-7.26042e-08
1.0058e-07
-1.47691e-06
1.83675e-06
-1.94408e-06
3.42132e-06
-1.51136e-07
1.14208e-06
-4.88267e-09
2.63051e-08
-4.43602e-09
-1.35122e-09
-1.26158e-09
-6.44683e-09
-6.70368e-10
-2.15823e-09
-1.32759e-09
-7.27246e-10
-9.3813e-09
-2.36929e-10
-1.49653e-07
-5.67264e-11
-2.2887e-06
-5.54893e-07
-2.16883e-05
-3.33326e-05
-0.000210905
-2.34515e-09
2.93529e-09
-5.11799e-09
4.87011e-09
1.10252e-08
-1.92336e-07
6.38961e-11
-1.61767e-09
-1.73936e-08
1.76551e-08
-3.20876e-07
4.21974e-07
-1.13148e-06
2.61444e-06
-8.38439e-07
2.61454e-06
-2.83102e-08
5.003e-07
-1.12437e-08
7.71989e-09
-1.03041e-08
-3.22891e-09
-1.82564e-09
-1.14038e-08
-4.65757e-10
-3.90508e-09
-2.78174e-11
-1.22157e-09
4.29765e-11
-3.29431e-10
3.65799e-11
-7.43051e-11
-5.54734e-07
-1.53293e-10
-1.87718e-05
-1.34666e-05
-0.000228142
4.32748e-10
2.3938e-10
1.81953e-06
-4.64777e-06
3.01321e-08
-6.38902e-07
-4.14881e-08
3.78601e-08
-1.703e-07
5.20777e-07
-7.95112e-07
1.32902e-06
-1.2785e-06
2.72797e-06
-3.77507e-07
1.77748e-06
-2.02774e-08
1.61115e-07
-1.86935e-08
1.37687e-08
-2.00904e-08
-1.53747e-08
-5.18622e-09
-2.30031e-08
-7.17288e-10
-9.33811e-09
3.21602e-11
-2.24772e-09
7.94211e-11
-4.2361e-10
1.29531e-10
-1.47346e-10
7.2904e-11
-1.2401e-10
-1.11824e-05
-2.69497e-06
-0.000237734
1.81971e-05
-3.97596e-05
3.58182e-06
-9.64263e-06
-4.3012e-08
8.27906e-08
-2.34179e-07
1.83656e-07
-6.89196e-07
6.00647e-07
-6.35935e-07
1.50226e-06
-6.68474e-07
1.8703e-06
-7.01263e-08
1.17778e-06
-3.6202e-09
1.20148e-07
-1.30921e-08
4.47962e-08
4.23565e-09
-1.76839e-07
4.72358e-10
-7.06095e-08
3.74026e-10
-1.30274e-08
2.44054e-10
-3.66805e-09
1.29219e-10
-2.02152e-09
1.98499e-10
-2.65021e-10
2.91168e-10
-2.41861e-10
-2.93748e-06
-3.971e-08
-0.00023545
1.81329e-05
-9.8007e-06
4.14308e-05
-3.17222e-05
5.67902e-05
-3.31099e-05
5.78308e-05
-2.21462e-05
5.21922e-05
-1.91471e-05
4.58931e-05
-2.00796e-05
4.23677e-05
-2.01392e-05
4.23831e-05
-1.80665e-05
4.4436e-05
-1.48791e-05
4.72024e-05
-1.0944e-05
4.97843e-05
-7.3444e-06
5.17169e-05
-3.97189e-06
5.29512e-05
-8.13885e-07
5.30523e-05
2.50185e-06
5.26449e-05
5.45857e-06
5.22334e-05
7.95435e-06
5.2368e-05
1.00162e-05
5.28216e-05
1.27515e-05
5.36969e-05
1.57961e-05
5.54167e-05
1.83785e-05
5.92838e-05
2.21565e-05
6.72288e-05
2.40137e-05
4.013e-05
8.13703e-05
2.2753e-05
-1.67794e-05
2.50116e-05
-4.42594e-06
1.71399e-05
-6.85565e-08
1.39967e-05
-6.87468e-14
1.41879e-05
-2.68819e-12
1.365e-05
-1.14553e-10
1.28259e-05
-4.78854e-09
1.49456e-05
-1.53594e-07
2.1487e-05
-4.43441e-06
3.03204e-05
-5.25147e-06
3.97812e-05
-5.28401e-06
4.831e-05
-4.41561e-06
5.4486e-05
-2.36897e-06
5.73476e-05
8.58938e-07
5.71776e-05
5.62855e-06
5.64304e-05
8.70153e-06
5.66219e-05
9.82475e-06
5.66164e-05
1.2757e-05
5.74788e-05
1.49337e-05
6.02571e-05
1.56002e-05
6.54486e-05
1.69651e-05
7.37865e-05
1.56758e-05
2.26486e-05
9.12678e-05
4.49449e-06
-5.15805e-15
6.85571e-08
-6.02969e-13
-6.06382e-16
6.07495e-13
-6.93623e-14
1.79721e-16
-2.75755e-12
-2.91682e-19
-1.1731e-10
-5.30339e-18
-4.90586e-09
-1.22905e-17
-1.585e-07
-1.01783e-15
-5.02143e-07
-2.46606e-14
-7.41703e-07
-3.32342e-13
-1.4083e-07
-8.82623e-12
2.4246e-06
-2.26821e-10
8.22615e-06
-4.78612e-09
1.84151e-05
-8.5236e-08
3.49413e-05
-5.01138e-07
5.37338e-05
2.48067e-07
6.15466e-05
4.99786e-06
5.98832e-05
1.44204e-05
5.79124e-05
1.69045e-05
5.94721e-05
1.40405e-05
6.28195e-05
1.36177e-05
6.76098e-05
1.08855e-05
9.2408e-06
8.10177e-05
-5.09007e-15
-5.25705e-17
-6.01067e-13
-6.98821e-15
-1.78613e-16
6.76999e-15
-3.29722e-19
6.40434e-19
-2.54011e-19
-6.31761e-19
-4.24996e-19
-5.42416e-18
-6.97544e-18
-5.87439e-18
-3.81378e-16
-6.42695e-16
-4.96955e-15
-2.00577e-14
-2.65879e-13
-7.17516e-14
-9.01921e-12
-8.17676e-14
-2.35924e-10
-2.36633e-14
-5.01786e-09
-4.5118e-12
-8.99035e-08
-3.53087e-10
-5.80971e-07
-1.00483e-08
1.78299e-07
-4.92497e-08
7.52747e-06
-5.02529e-07
2.57689e-05
-1.13754e-08
4.89592e-05
1.12986e-06
6.29706e-05
4.04833e-06
6.70935e-05
9.49479e-06
6.97031e-05
8.27578e-06
4.64242e-06
7.43015e-05
-5.25705e-17
-2.70482e-23
-6.7448e-15
-1.02709e-20
-9.24179e-20
-4.63287e-19
-7.52538e-20
-1.09477e-19
-1.57058e-18
-7.77981e-18
-5.19749e-18
-1.91138e-17
-1.4485e-17
-3.29609e-17
-3.24666e-15
-3.14917e-16
-3.26665e-14
-1.051e-13
-5.49236e-14
-2.28729e-13
-6.25297e-14
-2.60622e-13
-2.89007e-13
7.67327e-15
-5.04251e-12
4.3834e-14
-1.14025e-10
-2.4443e-10
-8.06229e-10
-9.35888e-09
-2.94545e-08
-2.05789e-08
-5.15273e-07
-1.67386e-08
-4.70287e-07
-1.99916e-08
1.29458e-06
-2.1818e-08
8.11942e-06
-1.9061e-07
2.36006e-05
-1.44692e-07
5.11164e-05
-1.75083e-06
-2.4671e-06
7.09383e-05
-5.07172e-23
-1.0567e-23
-3.57166e-21
-6.77614e-21
-1.84848e-19
-2.81195e-19
-2.65129e-18
-3.80706e-18
-2.04681e-17
-2.45219e-17
-4.71922e-17
-5.31583e-17
-2.62864e-17
-7.47385e-17
1.02998e-16
-4.6568e-16
-6.03268e-13
-1.05605e-13
-1.21869e-12
-1.30858e-12
1.57263e-13
-1.1033e-12
-2.96878e-14
-3.15243e-15
-1.85484e-12
1.70515e-12
-4.44045e-10
-3.34293e-10
-5.07107e-10
-7.60272e-09
-3.40352e-09
-1.9807e-08
1.19388e-09
-8.5848e-09
7.00286e-10
-8.26637e-09
6.04827e-10
-9.85975e-09
-1.77009e-07
-4.84106e-10
-3.2178e-07
-2.10928e-08
-2.86776e-07
-2.83253e-08
-5.96085e-07
2.59502e-06
-1.65888e-23
-1.33628e-24
-1.11825e-20
-1.96069e-21
-5.87712e-19
-2.35428e-19
-7.16562e-18
-4.34304e-18
-3.64423e-17
-2.85242e-17
-6.66991e-17
-6.90894e-17
-5.17128e-17
-8.96789e-17
-3.35148e-16
-1.93979e-16
-6.75384e-13
-5.22978e-14
-1.94771e-12
-2.05837e-12
-3.61835e-13
-1.82942e-12
-2.31826e-13
-2.41385e-13
1.44494e-12
-5.9748e-14
1.49451e-09
-7.86811e-10
1.21834e-09
-3.3111e-10
4.74017e-10
-2.27833e-12
7.9508e-10
-1.25117e-14
3.52115e-09
-1.20905e-11
1.08737e-08
-6.7273e-09
1.17365e-08
-1.8178e-09
5.49287e-09
-1.97712e-09
-1.0626e-08
-2.57794e-09
-9.55961e-09
-5.93419e-07
-2.67814e-24
-2.90271e-25
-2.72203e-21
-3.30606e-22
-3.68663e-19
-1.08184e-19
-6.382e-18
-3.74369e-18
-3.14968e-17
-2.7749e-17
-5.76275e-17
-7.18103e-17
-5.92533e-17
-9.26427e-17
-1.6417e-16
-9.14589e-17
-1.91528e-13
-1.01477e-15
-1.47527e-12
-6.95094e-13
-8.39338e-13
-1.62681e-12
2.98662e-14
-2.14145e-12
2.27453e-11
-1.65276e-11
3.33308e-10
-1.32069e-11
2.2898e-12
-9.20417e-14
1.17066e-14
-3.23907e-16
1.12423e-16
-1.62614e-16
7.40237e-12
-1.94918e-11
9.41335e-09
-5.95782e-09
2.30944e-08
-6.56071e-09
2.76392e-08
-4.59291e-09
1.54963e-08
6.61718e-09
-2.20382e-10
6.06367e-09
-1.07631e-24
7.86036e-25
-4.3378e-22
-5.20988e-23
-1.32741e-19
-3.52526e-20
-3.5845e-18
-1.97851e-18
-2.12292e-17
-1.8842e-17
-4.1798e-17
-6.22144e-17
-3.4746e-17
-1.01457e-16
-1.2991e-17
-1.6076e-16
7.19022e-15
-8.26019e-15
-1.02749e-13
-8.296e-14
8.38898e-14
-1.00994e-13
2.66115e-13
-2.64876e-12
1.19507e-11
-7.15603e-12
8.46505e-14
-1.34124e-12
3.50085e-16
-7.83112e-15
3.03928e-17
-9.65977e-17
7.65566e-16
-9.00111e-17
6.51538e-10
-6.71028e-10
5.54447e-09
-1.20478e-08
1.22395e-08
-1.87372e-08
2.46705e-08
-1.49074e-08
3.52559e-08
-1.85172e-09
1.78821e-08
1.92698e-08
-3.46386e-24
-3.49066e-24
-5.39527e-23
-1.68298e-23
-3.56815e-20
-8.96377e-21
-1.18712e-18
-7.71388e-19
-7.39586e-18
-8.46262e-18
-1.61372e-17
-3.67367e-17
-9.95906e-18
-9.70595e-17
2.8485e-17
-1.02859e-16
2.30507e-15
-7.15142e-15
7.45413e-15
-5.05975e-14
1.96849e-14
-7.48108e-14
9.86043e-13
-9.64085e-14
2.50767e-12
-1.12784e-13
2.45287e-15
-8.34147e-14
1.29315e-16
-5.57268e-15
2.91787e-17
-6.88796e-17
8.3809e-16
-7.79087e-17
7.95105e-10
-7.70659e-10
1.46179e-09
-8.33066e-09
5.46582e-09
-2.01725e-08
7.38124e-09
-1.81253e-08
9.50129e-09
-6.4517e-09
3.6925e-09
1.02719e-08
-1.39161e-25
-7.19056e-24
-2.05213e-22
1.88244e-22
-7.80005e-21
-1.73071e-21
-2.76648e-19
-2.29399e-19
-1.88697e-18
-2.82727e-18
-8.76111e-18
-1.54466e-17
-4.46991e-20
-7.26392e-17
5.9399e-17
-9.53913e-17
4.04211e-15
-1.83247e-15
1.72308e-14
-5.43367e-14
1.83074e-14
-6.69906e-14
1.06427e-14
-8.84573e-14
1.16965e-14
-1.12294e-13
1.09606e-14
-8.04171e-14
5.70918e-17
-2.10412e-15
9.38953e-18
-5.26804e-17
2.50074e-16
-2.23631e-16
2.20278e-11
-2.40697e-12
-1.25648e-09
-2.68352e-10
-3.75062e-09
-9.82606e-09
-2.40089e-09
-1.7026e-08
-9.77848e-10
-1.18913e-08
1.47939e-09
8.10965e-10
1.07736e-24
-8.63025e-24
-7.47975e-23
2.53273e-22
-1.36378e-21
-2.68397e-22
-5.28363e-20
-5.24364e-20
-3.6374e-19
-7.31279e-19
-3.029e-18
-5.07693e-18
2.78979e-19
-4.80676e-17
2.30843e-17
-1.14604e-16
1.42129e-15
-2.86617e-16
1.6088e-14
-4.67583e-14
1.89712e-14
-5.82893e-14
1.48402e-14
-9.87318e-14
1.1864e-14
-1.10616e-13
3.40342e-15
-3.21227e-14
3.65321e-18
-4.29459e-17
-2.90806e-18
-4.82735e-17
-1.70363e-16
-5.85555e-17
-2.39371e-12
-1.25378e-14
-2.68767e-10
-1.8045e-12
-3.78157e-09
-1.33244e-10
-1.1067e-08
-4.99009e-09
-1.26467e-08
-9.19394e-09
-1.14839e-09
-8.86904e-09
-4.31819e-25
-7.98932e-24
-7.07613e-24
2.20096e-22
-1.95533e-22
-3.6409e-23
-8.40771e-21
-9.48093e-21
-6.32233e-20
-1.51148e-19
-1.03101e-18
-1.48437e-18
-2.01399e-18
-2.95032e-17
6.4711e-18
-1.20179e-16
1.77362e-16
-1.54354e-16
6.35937e-15
-1.8134e-15
7.8129e-15
-2.0802e-14
9.27015e-15
-7.79944e-14
3.96656e-15
-8.28319e-14
-5.32821e-18
-2.5113e-15
-4.0563e-18
-4.63722e-17
-8.40663e-18
-4.60776e-17
-1.31273e-17
-6.97927e-17
-1.24549e-14
-1.07575e-16
-1.81239e-12
-4.57553e-15
-1.34745e-10
-3.09987e-13
-5.11045e-09
-1.43876e-11
-1.33295e-08
-5.59137e-10
-9.67434e-10
-1.23928e-08
-5.98598e-25
-6.4438e-24
-9.00737e-26
1.66367e-22
-8.85105e-23
5.20114e-23
-1.13702e-21
-1.29617e-21
-1.11243e-20
-2.51468e-20
-4.07825e-19
-3.75954e-19
-6.00103e-18
-1.21725e-17
-4.61272e-18
-8.30385e-17
-6.38003e-19
-1.30264e-16
1.7551e-18
-8.01804e-17
-5.57844e-16
-1.68705e-15
-2.74123e-15
-2.4788e-14
-4.3533e-16
-2.01567e-17
-1.12132e-17
-1.09291e-16
-8.9157e-18
-6.10964e-17
-1.86953e-17
-3.94724e-17
-3.01744e-17
-8.08414e-17
-4.69443e-17
-1.61892e-16
-4.45558e-15
-2.36357e-16
-3.14024e-13
-4.58688e-16
-1.47e-11
-1.6999e-15
-5.73787e-10
-5.01246e-14
-1.74819e-12
-1.57248e-09
-4.33457e-25
-4.6536e-24
1.54961e-24
1.10847e-22
-4.86291e-23
9.3863e-23
-1.33047e-22
-1.23824e-22
-1.9835e-21
-3.29901e-21
-1.25967e-19
-8.23759e-20
-3.43109e-18
-3.19811e-18
-1.02052e-17
-3.08843e-17
-6.35696e-18
-7.70346e-17
-1.0835e-17
-7.06759e-17
-1.01726e-15
-2.12092e-17
-1.54093e-18
-1.46815e-17
-1.08704e-17
-1.07179e-17
-1.52871e-17
-2.26615e-17
-9.70142e-18
-3.3063e-17
-2.01021e-17
-7.92234e-18
-5.94037e-17
-7.76558e-18
-1.37837e-16
-8.91548e-17
-1.85883e-16
-2.64233e-16
-2.60272e-16
-4.59784e-16
-1.4763e-15
-5.58642e-16
-5.09897e-14
-6.98074e-16
-8.09208e-16
-1.7984e-12
-2.04598e-25
-3.04954e-24
2.93665e-24
6.37284e-23
-4.55975e-24
6.75099e-23
-1.20139e-23
-2.85477e-24
-3.34932e-22
-3.25791e-22
-2.94942e-20
-1.60339e-20
-1.10296e-18
-6.50961e-19
-6.69093e-18
-7.02781e-18
-9.50828e-18
-2.22402e-17
-3.93574e-18
-3.23023e-17
-1.75569e-18
-2.43696e-17
-2.2685e-18
-1.40593e-17
-3.5231e-18
-9.40505e-18
-6.83779e-18
-8.65292e-18
-2.07942e-18
-4.46224e-18
-1.96887e-18
-1.16304e-18
-8.79749e-18
-5.00966e-19
-1.16678e-16
-1.77855e-18
-3.60703e-16
-1.63687e-17
-6.3554e-16
-1.44879e-16
-7.62429e-16
-3.77628e-16
-8.63183e-16
-5.4567e-16
-6.16362e-16
-1.00174e-15
-4.63944e-26
-1.81785e-24
2.43395e-24
3.12334e-23
-7.05387e-27
3.80823e-23
-7.45633e-24
4.59451e-24
-5.20267e-23
-2.21826e-23
-6.57605e-21
-2.7136e-21
-2.53217e-19
-1.06045e-19
-1.81683e-18
-1.10819e-18
-4.04041e-18
-4.15835e-18
-5.58857e-18
-8.81001e-18
-3.63374e-18
-9.14495e-18
-3.42763e-18
-9.83955e-18
-2.57444e-18
-3.28567e-18
-1.49308e-18
-6.29542e-19
-4.72401e-19
-1.49863e-19
-1.60713e-19
-6.07759e-20
-2.40768e-19
-5.4275e-20
-1.51388e-18
-3.21361e-19
-2.69323e-17
-2.50926e-18
-2.78811e-16
-1.77796e-17
-8.30926e-16
-9.3254e-17
-1.4643e-15
-2.58446e-16
-4.01269e-16
-4.70111e-15
4.16304e-26
-9.69993e-25
1.62277e-24
1.27584e-23
3.99131e-25
1.75384e-23
-1.48193e-24
3.84426e-24
-7.72546e-24
-1.09542e-24
-1.28097e-21
-3.80441e-22
-4.15591e-20
-1.43038e-20
-3.12328e-19
-1.46576e-19
-1.00184e-18
-6.57348e-19
-2.66155e-18
-1.61075e-18
-2.86321e-18
-2.1657e-18
-1.25083e-18
-1.79071e-18
-2.68767e-19
-7.28743e-19
-6.16365e-20
-1.33799e-19
-2.01951e-20
-1.19937e-20
-2.09874e-20
-2.52769e-21
-3.95848e-20
-5.02787e-21
-3.53135e-19
-5.09498e-20
-3.48569e-18
-5.06086e-19
-3.22945e-17
-3.55733e-18
-2.24179e-16
-2.31024e-17
-9.51692e-16
-1.43166e-16
-3.82964e-16
-2.74282e-15
5.59406e-26
-4.4885e-25
8.76601e-25
4.21167e-24
3.78251e-25
6.39041e-24
-9.24787e-26
1.55365e-24
-1.07066e-24
-5.97472e-26
-1.98929e-22
-4.27012e-23
-5.65061e-21
-1.69061e-21
-5.19933e-20
-1.85121e-20
-2.38045e-19
-9.20789e-20
-4.31071e-19
-2.24391e-19
-4.81288e-19
-2.68697e-19
-3.00798e-19
-2.27729e-19
-7.42675e-20
-1.10183e-19
-7.03316e-21
-2.38941e-20
-8.93479e-22
-1.6116e-21
-1.11568e-21
-5.57959e-23
-4.79727e-21
-4.02879e-22
-7.2584e-20
-8.4636e-21
-7.63559e-19
-1.14659e-19
-6.23098e-18
-9.42157e-19
-8.08965e-17
-6.09747e-18
-9.8256e-16
-4.74323e-17
-2.2896e-16
-3.61639e-15
2.99181e-26
-1.72715e-25
3.68702e-25
1.07659e-24
1.71887e-25
1.76061e-24
-6.76125e-27
4.29082e-25
-1.18849e-25
-3.29403e-27
-2.4497e-23
-3.68734e-24
-7.48976e-22
-1.79255e-22
-8.14893e-21
-2.25788e-21
-4.00776e-20
-1.0987e-20
-6.16172e-20
-2.65767e-20
-6.8502e-20
-3.14922e-20
-4.80821e-20
-2.54902e-20
-1.44498e-20
-1.28602e-20
-1.20053e-21
-3.0768e-21
-1.22235e-23
-2.11753e-22
-2.12662e-23
2.28449e-23
-5.55136e-22
-1.73321e-23
-1.49246e-20
-1.43181e-21
-2.21054e-19
-2.73666e-20
-1.89866e-18
-3.02326e-19
-1.95248e-17
-1.85613e-18
-3.0638e-16
-7.94334e-18
-3.76706e-17
-1.90273e-15
1.00731e-26
-5.23733e-26
1.15124e-25
2.00088e-25
5.27244e-26
3.43012e-25
-4.90298e-28
8.18082e-26
-8.87116e-27
-6.5305e-28
-2.4387e-24
-2.13605e-25
-9.97978e-23
-1.51775e-23
-1.08506e-21
-2.39749e-22
-5.24421e-21
-1.15411e-21
-8.06059e-21
-2.50613e-21
-8.69863e-21
-2.93268e-21
-6.08023e-21
-2.33332e-21
-1.96698e-21
-1.03147e-21
-1.6453e-22
-1.52043e-22
2.0244e-23
2.94496e-23
-1.31419e-23
3.96262e-23
-5.5725e-23
-5.06763e-24
-2.89609e-21
-1.8912e-22
-7.14132e-20
-5.92672e-21
-8.75696e-19
-8.60198e-20
-5.20799e-18
-6.47819e-19
-3.15796e-17
-2.48973e-18
-8.06533e-18
-2.93268e-16
2.22914e-27
-1.16597e-26
2.49736e-26
2.43163e-26
1.10312e-26
4.28085e-26
-2.57342e-29
9.95397e-27
-1.76857e-27
1.08978e-27
-1.72399e-25
-6.97516e-27
-1.09917e-23
-8.50859e-25
-1.32379e-22
-1.78405e-23
-5.38863e-22
-8.79513e-23
-8.1671e-22
-1.72431e-22
-8.77164e-22
-2.07812e-22
-5.58713e-22
-1.64949e-22
-1.17521e-22
-5.99404e-23
2.53304e-23
1.13169e-23
3.91847e-23
3.69304e-23
-1.05231e-24
3.82731e-23
-1.88955e-23
1.27756e-23
-4.95803e-22
-2.4743e-23
-1.7367e-20
-1.24438e-21
-3.18035e-19
-2.13091e-20
-2.2233e-18
-1.94247e-19
-8.40191e-18
-8.62308e-19
-3.062e-18
-5.72603e-17
3.04691e-28
-1.70655e-27
3.41373e-27
1.50325e-27
1.4528e-27
2.78487e-27
2.15446e-28
6.2916e-28
-9.78596e-28
9.66676e-29
-7.43967e-27
-4.90562e-29
-8.07676e-25
-2.37805e-26
-1.13371e-23
-7.06425e-25
-3.86142e-23
-3.75631e-24
-6.20137e-23
-7.4926e-24
-6.66706e-23
-9.29591e-24
-3.88496e-23
-5.54305e-24
9.41427e-24
3.08082e-24
3.51321e-23
1.42173e-23
4.19063e-23
2.47968e-23
1.62647e-23
1.96459e-23
-2.68204e-23
7.71711e-24
-9.07019e-23
-3.77672e-24
-3.96823e-21
-2.50039e-22
-8.73551e-20
-4.92089e-21
-7.35826e-19
-5.22835e-20
-3.22634e-18
-2.68914e-19
-1.14927e-18
-2.03908e-17
2.04751e-29
-1.28636e-28
2.3863e-28
1.00318e-34
9.79048e-29
2.30546e-33
2.03909e-29
3.40128e-32
-9.1874e-30
2.62038e-31
-1.40506e-28
-2.39154e-30
-2.9925e-26
-1.61564e-28
-4.9331e-25
-1.04417e-26
-1.73815e-24
-7.32144e-26
-2.90143e-24
-1.55787e-25
-2.87691e-24
7.55509e-27
2.4549e-24
5.51489e-25
1.29502e-23
2.78641e-24
2.59087e-23
7.09982e-24
2.36926e-23
8.82144e-24
1.08471e-23
6.23735e-24
-4.81458e-24
2.42629e-24
-1.69865e-23
-6.33094e-25
-8.73127e-22
-4.71535e-23
-2.26638e-20
-1.0478e-21
-2.16236e-19
-1.28156e-20
-1.061e-18
-7.11034e-20
-3.08585e-19
-7.34814e-18
1.44689e-36
-8.33311e-31
2.07697e-34
4.33173e-35
5.53895e-33
1.07922e-33
5.80552e-32
1.97121e-32
-3.0025e-32
2.77219e-31
-5.20147e-30
2.77991e-30
-3.29425e-28
1.92325e-29
-9.39549e-27
1.04542e-28
-4.27847e-26
7.50506e-28
4.94857e-27
6.44948e-27
4.14776e-25
4.80726e-26
2.40468e-24
2.61283e-25
7.03588e-24
9.19989e-25
1.0075e-23
1.80708e-24
8.26255e-24
1.96312e-24
3.76386e-24
1.27556e-24
-9.16392e-25
4.67433e-25
-3.14351e-24
-1.09494e-25
-1.80088e-22
-8.21157e-24
-5.6709e-21
-1.96526e-22
-6.1543e-20
-2.71132e-21
-2.69562e-19
-1.60186e-20
-6.87566e-20
-1.21894e-18
6.35817e-37
-3.45612e-33
9.93318e-35
1.39831e-35
3.28726e-33
3.56243e-34
6.33318e-32
6.69756e-33
8.14411e-31
9.96457e-32
6.9598e-30
1.1321e-30
4.552e-29
9.8845e-30
3.86113e-28
6.87321e-29
3.87419e-27
4.25686e-28
3.34752e-26
2.54296e-27
2.10114e-25
1.3549e-26
8.53543e-25
5.58366e-26
1.93841e-24
1.56803e-25
2.44408e-24
2.68811e-25
1.85515e-24
2.64179e-25
8.02553e-25
1.57315e-25
-1.79332e-25
4.96677e-26
-5.76519e-25
-2.46537e-26
-3.40734e-23
-1.27308e-24
-1.27041e-21
-3.20534e-23
-1.57197e-20
-4.89607e-22
-6.12298e-20
-2.98922e-21
-1.13297e-20
-6.96975e-20
1.93129e-37
-1.17379e-35
3.23506e-35
3.22668e-36
1.11479e-33
8.34877e-35
2.29833e-32
1.57561e-33
3.37573e-31
2.35974e-32
3.665e-30
2.74965e-31
3.08499e-29
2.52742e-30
2.2723e-28
1.85477e-29
1.59575e-27
1.11429e-28
9.92408e-27
5.6495e-28
4.75774e-26
2.39719e-27
1.55402e-25
7.86002e-27
3.10754e-25
1.81471e-26
3.57974e-25
2.71028e-26
2.51862e-25
2.29296e-26
9.50568e-26
1.18659e-26
-4.27222e-26
2.34739e-27
-1.06225e-25
-5.12169e-27
-5.92408e-24
-1.75562e-25
-2.76823e-22
-6.08745e-24
-3.97782e-21
-1.05386e-22
-1.25475e-20
-4.1013e-22
-9.83949e-22
4.13636e-20
3.58592e-38
-5.29212e-38
7.17591e-36
4.79047e-37
2.54752e-34
1.24559e-35
5.37064e-33
2.29573e-34
8.17433e-32
3.3234e-33
9.42096e-31
3.76262e-32
8.43525e-30
3.40112e-31
6.07396e-29
2.45654e-30
3.64939e-28
1.40772e-29
1.82371e-27
6.35922e-29
7.02152e-27
2.25366e-28
1.90543e-26
6.1775e-28
3.3585e-26
1.24639e-27
3.37724e-26
1.6304e-27
2.09795e-26
1.08416e-27
5.06181e-27
4.28303e-28
-9.3511e-27
-3.94182e-30
-1.64181e-26
-6.81914e-28
-1.11966e-24
-2.13385e-26
-1.0552e-22
-9.13096e-25
-1.45459e-21
-1.31763e-23
-2.3504e-21
-3.55163e-23
-1.06798e-22
-3.1517e-21
3.08088e-39
-3.40834e-39
9.69483e-37
3.54337e-38
3.50607e-35
9.12497e-37
7.28623e-34
1.56915e-35
1.09082e-32
2.02242e-34
1.24816e-31
1.97065e-33
1.10965e-30
1.5167e-32
7.68894e-30
9.48901e-32
4.15522e-29
4.90614e-31
1.75168e-28
2.10645e-30
5.70345e-28
7.42634e-30
1.37031e-27
2.05943e-29
2.14782e-27
4.07171e-29
1.7295e-27
4.71481e-29
8.39845e-28
2.50136e-29
-9.71997e-30
6.59559e-30
-3.89066e-29
-2.49124e-30
-2.21411e-27
-6.9976e-29
-2.12106e-25
-1.82051e-27
-2.256e-23
-7.17519e-26
-2.64111e-22
-2.88382e-25
-4.64876e-22
4.04736e-24
6.54428e-23
-7.24306e-22
-1.47891e-42
-3.13359e-40
6.09729e-38
2.09023e-40
2.20195e-36
5.8249e-39
4.17194e-35
1.08789e-37
5.44626e-34
1.55163e-36
5.36114e-33
1.70032e-35
4.16485e-32
1.49489e-34
2.62733e-31
1.0796e-33
1.36286e-30
6.46539e-33
5.77618e-30
3.18982e-32
1.92755e-29
1.25371e-31
4.60863e-29
3.60409e-31
6.51799e-29
6.21597e-31
4.29183e-29
3.64024e-31
1.43814e-29
1.09359e-31
-6.72053e-30
-4.41433e-32
-1.08612e-29
-2.35014e-31
-2.5362e-28
-4.21347e-30
-2.69402e-26
-8.48725e-29
-3.45965e-24
1.2759e-27
-4.52023e-23
3.34769e-25
-8.88382e-23
3.193e-24
8.11922e-23
-1.33866e-22
-1.9434e-43
-4.98923e-42
3.15054e-40
4.8744e-43
1.3688e-38
1.66325e-41
2.94611e-37
3.73445e-40
4.3844e-36
6.4045e-39
4.9782e-35
8.41101e-38
4.5029e-34
8.83911e-37
3.31777e-33
7.58057e-36
1.995e-32
5.30577e-35
9.53083e-32
2.95597e-34
3.34038e-31
1.22525e-33
7.08544e-31
3.25581e-33
5.18311e-31
3.99399e-33
1.99291e-31
1.7668e-33
-1.0707e-31
4.40899e-34
-1.25894e-31
-1.07621e-34
-7.58342e-31
-9.75273e-33
-2.00303e-29
-1.54702e-31
-2.3674e-27
1.17569e-30
-4.02316e-25
1.18086e-27
-6.73375e-24
9.84002e-26
-1.65286e-23
1.03779e-24
5.83314e-23
-8.89568e-25
-3.20824e-45
-3.82621e-44
6.76852e-43
9.10375e-46
4.14265e-41
3.77914e-44
1.1031e-39
1.00509e-42
1.99518e-38
2.04468e-41
2.734e-37
3.17074e-40
2.95754e-36
3.9052e-39
2.56359e-35
3.85539e-38
1.75337e-34
2.99512e-37
8.91171e-34
1.72089e-36
2.92058e-33
6.34801e-36
4.47836e-33
1.08968e-35
2.5341e-33
4.49578e-36
8.39874e-34
1.04383e-36
-1.873e-34
-3.15521e-38
-8.43512e-34
-1.11035e-35
-4.13893e-32
-3.3289e-34
-1.23746e-30
-1.32347e-33
-1.35194e-28
5.95426e-31
-3.37569e-26
1.54845e-28
-9.01511e-25
1.5971e-26
-2.4865e-24
2.066e-25
1.30507e-23
4.39426e-23
-2.55634e-47
-1.732e-46
1.05937e-45
6.67853e-49
9.86185e-44
3.79235e-47
3.19942e-42
1.28655e-45
6.93672e-41
3.26475e-44
1.12377e-39
6.11739e-43
1.40721e-38
8.77486e-42
1.35974e-37
9.47636e-41
9.63203e-37
7.17237e-40
4.38005e-36
3.1768e-39
9.34689e-36
4.75944e-39
4.88274e-36
1.66941e-39
1.48204e-36
3.37138e-40
-6.18632e-38
-2.92931e-42
-3.96273e-37
-1.81345e-39
-4.57007e-35
-4.26756e-37
-1.92697e-33
-9.38287e-36
-6.71888e-32
3.33149e-34
-7.15086e-30
7.00494e-32
-2.62823e-27
1.46519e-29
-1.03573e-25
1.75758e-27
-2.08645e-25
2.18151e-26
6.3179e-25
1.35656e-23
-1.13841e-49
-4.72647e-49
6.88347e-49
1.90848e-52
1.15036e-46
1.45763e-50
4.75031e-45
6.04894e-49
1.2653e-43
1.78628e-47
2.40469e-42
3.61885e-46
3.30681e-41
4.97916e-45
3.11984e-40
4.13687e-44
1.70631e-39
1.5132e-43
3.15742e-39
4.52191e-44
1.38194e-39
2.23676e-44
3.56137e-40
1.13857e-43
-4.11083e-42
1.53929e-44
-7.85624e-42
-8.74034e-44
-1.50825e-38
-5.95873e-41
-1.69773e-36
-1.69808e-38
-8.87489e-35
-2.28801e-37
-3.76567e-33
3.61982e-35
-3.48309e-31
5.51223e-33
-1.51128e-28
8.58148e-31
-7.06425e-27
1.14359e-28
-8.54274e-27
1.59108e-27
2.56694e-26
6.9304e-25
-3.0053e-52
-7.12851e-52
1.52917e-52
3.50067e-57
5.1343e-50
6.20651e-56
2.50975e-48
1.62442e-54
7.34768e-47
1.59896e-53
1.34631e-45
2.0662e-53
1.42852e-44
1.9537e-51
6.52045e-44
1.43763e-49
2.40651e-44
7.13615e-48
1.47089e-44
2.27456e-46
9.35702e-44
4.16023e-45
1.62114e-44
3.27059e-44
-1.27116e-43
8.87167e-45
-2.26611e-43
-2.30381e-45
-6.13387e-40
-1.45754e-42
-7.04681e-38
-5.1517e-40
-4.07104e-36
-5.20533e-39
-1.9868e-34
1.9792e-36
-1.24264e-32
2.57238e-34
-4.59025e-30
2.58575e-32
-3.26325e-28
3.81432e-30
-2.60705e-28
7.52945e-29
6.87464e-28
2.85086e-26
-4.27288e-55
-4.34733e-55
2.49565e-58
9.69647e-61
1.34782e-55
1.10108e-61
2.23216e-54
5.15648e-59
4.2321e-54
1.38824e-56
5.34411e-52
2.30161e-54
5.03126e-50
2.5598e-52
3.12034e-48
1.94017e-50
1.22993e-46
9.89383e-49
2.78379e-45
3.2281e-47
2.74176e-44
6.0089e-46
9.57139e-45
4.75809e-45
-3.19151e-45
1.20968e-45
-5.79114e-45
-5.20878e-47
-1.59453e-41
-2.77231e-44
-2.54391e-39
-1.14953e-41
-1.63633e-37
-1.17815e-40
-8.47648e-36
6.54918e-38
-4.00467e-34
7.70462e-36
-1.00792e-31
7.0992e-34
-1.53813e-29
1.00617e-31
-7.14037e-30
2.93508e-30
6.4767e-30
8.16191e-28
-2.24347e-58
-2.0415e-79
-1.21296e-63
2.10688e-67
4.18292e-60
1.55516e-63
1.92644e-57
7.40865e-61
4.73575e-55
1.94773e-58
7.05062e-53
3.15335e-56
6.85173e-51
3.38945e-54
4.37486e-49
2.44037e-52
1.77011e-47
1.13821e-50
4.09308e-46
3.11884e-49
4.08181e-45
3.8252e-48
1.34416e-45
7.73228e-49
-6.2688e-47