/*--------------------------------*- C++ -*----------------------------------*\
| =========                 |                                                 |
| \\      /  F ield         | OpenFOAM: The Open Source CFD Toolbox           |
|  \\    /   O peration     | Version:  2206                                  |
|   \\  /    A nd           | Website:  www.openfoam.com                      |
|    \\/     M anipulation  |                                                 |
\*---------------------------------------------------------------------------*/
FoamFile
{
    version     2.0;
    format      ascii;
    arch        "LSB;label=32;scalar=64";
    class       volScalarField;
    location    "0.5";
    object      p;
}
// * * * * * * * * * * * * * * * * * * * * * * * * * * * * * * * * * * * * * //

dimensions      [1 -1 -2 0 0 0 0];

internalField   nonuniform List<scalar> 
2268
(
648.419
645.343
648.366
655.654
666.37
675.106
681.383
686.735
693.567
703.286
716.239
732.302
751.167
772.596
796.354
821.949
848.169
872.792
891.496
904.542
893.287
891.67
935.99
589.18
585.367
588.119
595.237
605.956
614.916
621.362
626.826
633.783
643.619
656.614
672.561
691.273
712.523
736.034
761.414
787.774
813.377
833.896
850.996
838.382
821.484
870.92
529.239
524.65
526.721
533.32
544.057
553.446
560.221
565.904
573.105
583.182
596.363
612.468
631.271
652.517
675.847
700.72
726.186
751.127
772.459
789.753
782.92
757.627
810.184
469.188
463.469
464.281
470.038
480.774
490.815
498.08
504.082
511.632
522.047
535.487
551.764
570.668
591.93
615.218
639.948
665.065
689.357
710.392
726.942
727.029
712.021
760.935
409.681
402.279
401.091
405.459
416.151
427.148
435.072
441.464
449.464
460.304
474.047
490.522
509.565
530.903
554.268
579.08
604.295
628.541
649.748
666.847
675.173
675.321
719.17
351.433
341.819
337.589
339.872
350.546
362.741
371.392
378.146
386.63
397.964
412.072
428.807
448.004
469.447
492.996
518.086
543.671
568.315
590.307
608.87
623.338
634.218
675.31
295.242
282.502
274.587
274.402
284.959
298.017
307.165
314.278
323.264
335.034
349.462
366.493
386.017
407.592
431.392
456.92
483.105
508.416
531.443
551.531
569.262
585.435
620.168
241.239
226.612
213.879
209.433
219.295
232.544
241.78
249.625
259.588
271.906
286.518
303.397
323.144
345.105
369.425
395.756
422.852
448.97
473.011
494.412
513.267
531.423
553.558
187.993
188.16
188.458
188.796
189.345
190.208
191.371
192.006
192.546
195.774
173.274
149.734
152.601
162.388
176.027
254.931
565.017
1041.24
1164.36
187.904
188.055
188.38
188.673
189.176
190.095
191.587
191.568
180.633
145.634
132.99
135.422
139.873
142.665
144.627
160.096
318.579
843.665
1097.22
187.769
187.9
188.287
188.476
188.821
189.696
190.679
187.841
155.072
134.595
131.933
135.484
139.865
142.454
142.869
146.253
213.353
515.901
989.749
187.589
187.672
188.179
188.229
188.241
188.994
189.168
176.787
143.283
131.314
130.221
134.656
139.579
142.243
142.414
142.913
167.126
304.825
856.406
187.386
187.327
188.066
187.93
187.322
187.585
186.927
164.382
137.395
128.62
128.54
133.453
139.025
141.979
142.447
141.949
147.221
191.36
704.933
187.151
187.056
188.173
187.706
186.38
186.139
182.794
153.908
134.179
126.504
126.551
131.864
138.208
141.573
142.292
141.947
142.098
152.932
498.059
186.978
185.994
188.613
187.486
185.561
184.732
176.701
147.987
132.523
125.401
124.764
130.278
137.319
141.081
142.057
141.873
141.791
145.728
298.544
181.153
179.957
187.795
186.749
184.335
182.724
175.239
148.754
132.978
125.47
123.764
129.435
136.683
140.696
141.817
141.622
141.845
140.2
178.209
159.546
143.223
122.083
109.553
117.065
129.175
137.262
146.1
158.419
172.551
188.517
206.424
225.913
246.912
271.631
299.056
327.995
355.931
381.944
405.655
424.463
436.49
418.051
65.9761
42.459
24.3682
16.1177
19.6527
25.7313
29.265
32.6867
38.7265
46.5371
56.6522
69.3453
86.0389
108.225
135.786
168.192
201.688
231.735
260.254
287.21
309.732
327.213
343.2
6.09578
0.179279
-0.248763
-0.0457546
-0.0338097
0.00889959
0.0702591
0.152226
0.0871954
0.625243
3.14101
6.35509
10.8968
17.645
29.0786
48.626
75.6982
106.809
141.626
173.729
199.226
223.46
251.069
-0.341655
-0.329675
-0.348015
-0.261081
-0.220383
-0.18201
-0.167607
-0.159555
-0.217536
-0.338955
-0.333172
-0.319537
-0.322087
-0.343693
-0.144392
1.14726
6.93909
20.0259
42.8533
68.1168
91.7096
119.441
147.424
-0.418126
-0.378424
-0.380664
-0.38584
-0.375732
-0.360709
-0.357907
-0.376334
-0.437358
-0.510517
-0.520405
-0.51541
-0.510251
-0.482434
-0.384446
-0.353413
-0.286564
0.210486
2.50078
7.26296
18.2586
39.4948
65.6295
-0.545753
-0.539205
-0.53782
-0.534903
-0.526459
-0.520369
-0.523038
-0.536761
-0.565424
-0.598373
-0.612799
-0.619783
-0.634599
-0.652767
-0.628076
-0.607956
-0.505934
-0.473615
-0.29739
-0.304582
-0.258785
1.27212
6.83783
-0.689217
-0.685228
-0.678577
-0.681423
-0.680582
-0.679669
-0.684555
-0.696712
-0.715504
-0.734316
-0.745668
-0.751411
-0.755828
-0.757202
-0.749798
-0.725391
-0.69083
-0.683342
-0.634788
-0.624811
-0.634685
-0.516887
-0.708933
-0.833645
-0.831611
-0.828945
-0.830497
-0.831372
-0.83343
-0.838851
-0.848455
-0.861097
-0.873311
-0.881898
-0.887387
-0.894359
-0.901596
-0.901003
-0.887336
-0.862351
-0.845
-0.82181
-0.807234
-0.89968
-1.01211
-1.16844
-0.980738
-0.97941
-0.978197
-0.979512
-0.981205
-0.98418
-0.989308
-0.99691
-1.00622
-1.01512
-1.02181
-1.0263
-1.02956
-1.03396
-1.0346
-1.03056
-1.02372
-1.02178
-1.0327
-1.07491
-1.16161
-1.26071
-1.3197
-1.12791
-1.12683
-1.12653
-1.12786
-1.12986
-1.13298
-1.13753
-1.1436
-1.15069
-1.15766
-1.16352
-1.16804
-1.17168
-1.17546
-1.17795
-1.17918
-1.18245
-1.18897
-1.2178
-1.27992
-1.38434
-1.52621
-1.5205
-1.27439
-1.27383
-1.27406
-1.27544
-1.2775
-1.28046
-1.28442
-1.28933
-1.29489
-1.30051
-1.30563
-1.31007
-1.31399
-1.31802
-1.32223
-1.32739
-1.33643
-1.34887
-1.38475
-1.44705
-1.53787
-1.67332
-1.66369
-1.42049
-1.42033
-1.42086
-1.42226
-1.42427
-1.427
-1.43046
-1.43456
-1.43911
-1.44379
-1.44832
-1.45262
-1.45684
-1.46143
-1.4668
-1.47392
-1.48414
-1.49932
-1.52991
-1.5806
-1.64946
-1.72646
-1.71801
-1.5662
-1.56634
-1.56704
-1.56842
-1.57033
-1.57284
-1.57592
-1.57947
-1.58338
-1.58746
-1.5916
-1.59578
-1.60015
-1.60507
-1.61087
-1.61838
-1.62834
-1.64259
-1.66607
-1.70231
-1.75341
-1.79609
-1.79048
-1.71159
-1.71187
-1.71265
-1.714
-1.71581
-1.71813
-1.72091
-1.7241
-1.72759
-1.7313
-1.73519
-1.73924
-1.74361
-1.74855
-1.75435
-1.7615
-1.77052
-1.78255
-1.79961
-1.82371
-1.85483
-1.882
-1.88235
-1.85662
-1.85697
-1.85778
-1.85908
-1.86079
-1.86295
-1.86551
-1.86843
-1.87165
-1.87512
-1.87881
-1.88275
-1.88703
-1.89185
-1.89739
-1.90396
-1.9119
-1.92175
-1.93413
-1.94943
-1.96648
-1.97905
-1.97955
-2.00129
-2.00167
-2.00248
-2.00372
-2.00534
-2.00737
-2.00976
-2.01249
-2.01551
-2.01879
-2.02233
-2.02614
-2.0303
-2.03493
-2.04015
-2.04612
-2.05302
-2.06105
-2.07031
-2.08056
-2.09033
-2.0962
-2.09532
-2.1456
-2.14599
-2.14678
-2.14796
-2.14951
-2.15142
-2.15368
-2.15626
-2.15913
-2.16227
-2.16568
-2.16937
-2.17339
-2.17781
-2.18269
-2.18812
-2.19413
-2.20074
-2.20782
-2.21494
-2.22102
-2.22442
-2.22388
-2.28955
-2.28994
-2.2907
-2.29184
-2.29331
-2.29514
-2.29729
-2.29975
-2.3025
-2.30554
-2.30884
-2.31242
-2.31631
-2.32054
-2.32514
-2.33012
-2.33545
-2.34106
-2.34674
-2.35207
-2.3563
-2.35854
-2.35811
-2.43315
-2.43355
-2.43427
-2.43536
-2.43678
-2.43853
-2.44059
-2.44296
-2.44563
-2.44858
-2.4518
-2.4553
-2.45908
-2.46316
-2.46754
-2.4722
-2.47708
-2.48207
-2.48695
-2.49139
-2.49489
-2.49693
-2.4971
-2.57643
-2.5768
-2.5775
-2.57855
-2.57991
-2.5816
-2.5836
-2.58591
-2.5885
-2.59139
-2.59455
-2.59798
-2.60169
-2.60567
-2.60991
-2.61437
-2.61899
-2.62365
-2.62817
-2.63229
-2.63567
-2.63799
-2.63896
-2.71938
-2.71973
-2.7204
-2.72142
-2.72274
-2.72438
-2.72632
-2.72858
-2.73112
-2.73396
-2.73708
-2.74047
-2.74413
-2.74806
-2.75224
-2.75662
-2.76115
-2.76572
-2.7702
-2.77439
-2.77806
-2.78102
-2.78305
-2.86201
-2.86234
-2.86299
-2.86397
-2.86526
-2.86686
-2.86876
-2.87097
-2.87348
-2.87629
-2.87938
-2.88275
-2.8864
-2.89032
-2.8945
-2.8989
-2.90346
-2.90813
-2.91278
-2.9173
-2.92153
-2.92534
-2.92864
-3.00433
-3.00465
-3.00527
-3.00623
-3.00748
-3.00905
-3.01092
-3.0131
-3.01558
-3.01836
-3.02143
-3.0248
-3.02847
-3.03242
-3.03666
-3.04114
-3.04585
-3.05072
-3.0557
-3.0607
-3.06564
-3.07043
-3.07503
-3.14635
-3.14665
-3.14726
-3.1482
-3.14942
-3.15096
-3.1528
-3.15495
-3.1574
-3.16017
-3.16323
-3.16662
-3.17031
-3.17433
-3.17865
-3.18328
-3.18819
-3.19336
-3.19875
-3.20433
-3.21004
-3.21586
-3.22177
-3.28808
-3.28837
-3.28895
-3.28987
-3.29107
-3.29258
-3.29439
-3.29652
-3.29895
-3.3017
-3.30477
-3.30817
-3.31191
-3.31599
-3.32043
-3.32523
-3.33038
-3.33587
-3.34172
-3.34791
-3.35444
-3.3613
-3.3685
-3.42952
-3.42979
-3.43036
-3.43125
-3.43242
-3.43391
-3.4357
-3.43779
-3.44021
-3.44294
-3.44601
-3.44943
-3.45321
-3.45738
-3.46193
-3.4669
-3.47229
-3.47813
-3.48444
-3.49124
-3.49857
-3.50645
-3.5149
-3.57068
-3.57093
-3.57147
-3.57234
-3.57349
-3.57495
-3.57671
-3.57878
-3.58116
-3.58388
-3.58694
-3.59037
-3.59419
-3.59842
-3.60308
-3.60821
-3.61383
-3.61999
-3.62674
-3.63412
-3.64221
-3.65106
-3.66072
-3.71155
-3.71178
-3.7123
-3.71315
-3.71427
-3.7157
-3.71743
-3.71946
-3.72181
-3.7245
-3.72755
-3.73098
-3.73481
-3.73909
-3.74383
-3.74908
-3.75489
-3.76133
-3.76846
-3.77637
-3.78515
-3.7949
-3.8057
-3.85214
-3.85236
-3.85285
-3.85368
-3.85477
-3.85616
-3.85785
-3.85984
-3.86215
-3.8648
-3.86781
-3.87121
-3.87504
-3.87933
-3.88411
-3.88945
-3.8954
-3.90205
-3.90949
-3.91783
-3.92718
-3.93777
-3.9496
-3.99245
-3.99268
-3.99313
-3.99394
-3.99499
-3.99633
-3.99797
-3.99991
-4.00216
-4.00475
-4.00771
-4.01106
-4.01485
-4.01911
-4.0239
-4.02926
-4.03529
-4.04206
-4.04971
-4.05836
-4.06829
-4.07944
-4.09216
-4.13249
-4.13273
-4.13314
-4.13392
-4.13493
-4.13622
-4.1378
-4.13967
-4.14185
-4.14437
-4.14724
-4.15052
-4.15423
-4.15842
-4.16314
-4.16847
-4.17448
-4.18128
-4.18902
-4.19793
-4.208
-4.21959
-4.23298
-4.27227
-4.27252
-4.27289
-4.27365
-4.2746
-4.27584
-4.27734
-4.27913
-4.28122
-4.28364
-4.2864
-4.28956
-4.29315
-4.29722
-4.30182
-4.30703
-4.31294
-4.31964
-4.32739
-4.33616
-4.34627
-4.35801
-4.37173
-4.4118
-4.41206
-4.41238
-4.41313
-4.41401
-4.41519
-4.41661
-4.4183
-4.42028
-4.42257
-4.4252
-4.42821
-4.43163
-4.43553
-4.43994
-4.44496
-4.45066
-4.45723
-4.46464
-4.47317
-4.48304
-4.49456
-4.50812
-4.55109
-4.55135
-4.55165
-4.55238
-4.55319
-4.5543
-4.55562
-4.5572
-4.55904
-4.56118
-4.56364
-4.56646
-4.56968
-4.57334
-4.57751
-4.58226
-4.58766
-4.59382
-4.60084
-4.60892
-4.61827
-4.62917
-4.642
-4.69014
-4.69042
-4.69069
-4.6914
-4.69213
-4.69316
-4.69437
-4.69581
-4.6975
-4.69946
-4.70172
-4.70432
-4.70728
-4.71066
-4.71451
-4.7189
-4.72393
-4.72956
-4.73603
-4.74347
-4.75204
-4.76195
-4.77352
-4.82893
-4.82929
-4.82954
-4.83023
-4.83087
-4.83179
-4.83287
-4.83416
-4.83568
-4.83744
-4.83947
-4.84179
-4.84445
-4.84748
-4.85092
-4.85484
-4.85933
-4.86444
-4.87027
-4.8769
-4.88448
-4.89313
-4.90303
-4.96742
-4.96802
-4.96833
-4.96894
-4.96945
-4.97026
-4.97119
-4.97232
-4.97364
-4.97517
-4.97693
-4.97895
-4.98126
-4.9839
-4.98688
-4.99022
-4.9939
-4.9986
-5.00369
-5.00939
-5.01582
-5.02306
-5.03118
-5.10714
-5.107
-5.1071
-5.10758
-5.10797
-5.10865
-5.10943
-5.11037
-5.11148
-5.11276
-5.11425
-5.11595
-5.11791
-5.12014
-5.12267
-5.12553
-5.12871
-5.13242
-5.13653
-5.14117
-5.14638
-5.15218
-5.15853
-5.24565
-5.24563
-5.2457
-5.24608
-5.24636
-5.24691
-5.24752
-5.24828
-5.24916
-5.25019
-5.25138
-5.25275
-5.25433
-5.25615
-5.25824
-5.26067
-5.26348
-5.26584
-5.26886
-5.27238
-5.27637
-5.28077
-5.28551
-5.38391
-5.38397
-5.38401
-5.3843
-5.38449
-5.38489
-5.38533
-5.38588
-5.38653
-5.38728
-5.38815
-5.38916
-5.39031
-5.39165
-5.39322
-5.39507
-5.3973
-5.39862
-5.40067
-5.40315
-5.40595
-5.40902
-5.41229
-5.52169
-5.52182
-5.52182
-5.52202
-5.52212
-5.52236
-5.52262
-5.52294
-5.52332
-5.52376
-5.52427
-5.52486
-5.52554
-5.52632
-5.52721
-5.5282
-5.52926
-5.53067
-5.53206
-5.53359
-5.53526
-5.53707
-5.53897
-5.65987
-5.65995
-5.65993
-5.66002
-5.66004
-5.66012
-5.66019
-5.66029
-5.6604
-5.66053
-5.66069
-5.66087
-5.66107
-5.6613
-5.66155
-5.6618
-5.66193
-5.66275
-5.66333
-5.66387
-5.66443
-5.66503
-5.66564
333.801
457.391
501.027
449.933
344.404
370.172
385.956
311.57
265.48
285.402
292.64
205.098
175.963
206.085
218.839
178.994
96.657
131.056
166.808
177.523
30.2293
62.5076
108.955
166.477
-0.555934
9.05657
46.1034
110.972
-1.27753
-1.1622
3.64713
38.0373
-1.34407
-1.21079
-1.24048
3.19461
-1.37223
-1.29068
-1.30334
-1.24114
-1.49141
-1.37322
-1.37516
-1.40759
-1.60768
-1.51054
-1.48978
-1.49039
-1.72947
-1.66548
-1.63301
-1.61731
-1.85108
-1.81008
-1.77303
-1.74116
-1.96512
-1.93754
-1.90808
-1.87722
-2.08582
-2.06724
-2.0436
-2.01473
-2.21794
-2.20324
-2.18343
-2.15731
-2.35387
-2.34317
-2.32721
-2.30508
-2.49459
-2.48676
-2.47471
-2.45742
-2.63808
-2.63322
-2.62543
-2.61358
-2.78403
-2.78175
-2.77871
-2.77256
-2.93183
-2.9345
-2.93399
-2.93332
-3.08027
-3.08582
-3.09034
-3.09484
-3.22899
-3.23754
-3.24619
-3.25581
-3.37765
-3.38912
-3.40149
-3.41541
-3.52592
-3.5402
-3.55591
-3.57335
-3.67352
-3.69053
-3.70939
-3.72982
-3.82024
-3.83996
-3.86218
-3.88605
-3.9658
-3.98838
-4.01474
-4.04438
-4.1099
-4.13547
-4.16702
-4.20682
-4.25202
-4.28042
-4.31764
-4.37085
-4.39153
-4.42198
-4.46355
-4.52782
-4.52783
-4.55849
-4.60118
-4.66679
-4.66059
-4.68895
-4.7285
-4.78577
-4.79004
-4.81402
-4.8463
-4.88951
-4.91682
-4.93619
-4.95956
-4.9856
-5.0422
-5.05681
-5.07248
-5.08667
-5.16703
-5.17746
-5.18742
-5.19424
-5.29169
-5.29883
-5.30486
-5.30763
-5.41646
-5.42109
-5.42451
-5.42532
-5.54133
-5.54402
-5.54566
-5.5457
-5.66639
-5.66723
-5.6677
-5.66759
192.894
183.253
183.739
184.29
182.648
183.694
181.709
157.188
137.137
127.23
124.758
129.915
136.469
140.547
141.642
141.501
141.423
139.816
145.474
183.663
178.383
181.062
180.331
176.938
179.059
191.099
169.176
148.574
138.453
133.979
134.933
138.157
140.629
141.539
141.674
141.569
141.783
143.818
178.576
177.879
179.263
177.485
171.594
164.986
170.662
169.374
160.239
147.784
137.31
136.308
137.947
139.559
140.67
141.12
141.141
141.316
145.576
178.137
178.042
178.259
176.737
172.627
168.706
167.044
163.392
163.426
154.611
135.367
135.379
137.913
139.279
140.168
140.633
140.816
140.96
167.405
178.115
178.255
178.183
177.547
175.605
173.562
172.204
168.564
169.63
170.856
139.758
136.957
136.586
138.444
140.633
140.575
140.942
140.844
199.057
177.981
178.397
178.492
178.481
177.449
175.552
173.86
173.748
175.366
180.458
166.822
133.322
125.474
116.326
137.072
140.144
140.451
137.679
250.584
178.072
178.523
178.571
178.744
178.06
176.555
175.41
175.278
175.676
176.107
174.736
90.9316
82.7073
111.91
119.586
132.835
137.371
207.361
366.447
106.537
139.693
161.624
158.823
146.13
142.679
143.74
148.127
149.517
140.062
94.8483
71.7654
83.8554
95.8545
112.791
147.828
229.366
392.556
545.982
21.6079
49.7477
93.1909
102.87
97.6352
93.2623
89.0361
80.3341
72.9896
70.5511
57.8738
48.179
43.761
50.3314
82.0008
176.842
332.481
508.169
652.3
-1.18372
3.11438
13.4974
23.1181
30.3034
31.9933
31.171
29.5309
27.4166
23.1626
15.5189
8.45581
7.10726
7.61076
9.90809
39.4428
182.759
426.887
572.638
-1.38282
-1.41306
-1.41105
-1.22009
-0.333417
-0.127661
-0.405216
-0.595231
0.289508
1.0214
1.23342
1.7274
3.09732
3.72181
3.82853
8.06067
29.3292
251.301
374.336
-1.46245
-1.48897
-1.43648
-1.35522
-1.30055
-1.27517
-1.20397
-0.975134
-0.438436
0.210075
0.648532
1.11659
2.25406
3.33848
3.58532
4.79906
12.0753
144.525
216.18
-1.59012
-1.57208
-1.53928
-1.48878
-1.44078
-1.35477
-1.22713
-1.0235
-0.732339
-0.496455
-0.436939
-0.535598
-1.0451
-9.76202
-15.9081
-14.0844
41.685
103.272
148.539
-1.71452
-1.68717
-1.64704
-1.59633
-1.53536
-1.4513
-1.33888
-1.19119
-1.02489
-0.941521
-0.962567
-1.04393
-1.04522
14.4405
43.5426
88.4259
109.242
119.131
140.791
-1.84461
-1.81334
-1.77397
-1.72532
-1.66549
-1.59172
-1.50474
-1.4087
-1.31878
-1.30706
-1.49776
-1.65591
0.304998
26.0769
56.6203
87.8168
112.395
117.833
134.432
-1.98277
-1.95231
-1.91523
-1.87065
-1.81756
-1.75627
-1.69102
-1.63293
-1.61183
-1.70679
-2.05644
-2.60689
-3.13177
-1.3822
11.9571
25.4013
47.8733
79.3694
119.31
-2.12834
-2.10108
-2.06837
-2.02958
-1.98447
-1.93473
-1.88563
-1.84811
-1.84868
-1.92055
-1.99759
-1.84629
-1.79873
-2.51542
14.174
34.3725
59.4294
89.2735
128.691
-2.28053
-2.25771
-2.2307
-2.19901
-2.16255
-2.12329
-2.08687
-2.06239
-2.06328
-2.10414
-2.14892
-2.12593
-1.93535
-1.85385
19.2985
56.5642
80.8528
102.018
114.879
-2.4383
-2.42075
-2.40027
-2.37646
-2.34928
-2.3208
-2.29679
-2.28691
-2.30185
-2.352
-2.43668
-2.48515
-2.69121
-3.51128
12.603
54.8831
83.0252
102.838
111.377
-2.6005
-2.58875
-2.57537
-2.56016
-2.54309
-2.52702
-2.51816
-2.52554
-2.56416
-2.63643
-2.7441
-2.8034
-2.69724
-0.770719
17.5743
46.1596
65.2664
82.3641
93.6811
-2.76584
-2.76016
-2.7543
-2.74824
-2.74221
-2.74047
-2.7492
-2.77999
-2.84866
-2.96963
-3.15348
-3.48839
-3.94705
-4.67019
-4.54242
-2.94975
9.85617
41.6398
63.3904
-2.93292
-2.93338
-2.93527
-2.93867
-2.94319
-2.95903
-2.98797
-3.04368
-3.14295
-3.3144
-3.58825
-4.05168
-4.55895
-4.93662
-5.11554
-4.92375
-3.17648
12.6924
31.1447
-3.10041
-3.10693
-3.11671
-3.13168
-3.15402
-3.18152
-3.22946
-3.3066
-3.42611
-3.61326
-3.89529
-4.2968
-4.77603
-5.21247
-5.52839
-5.5233
-5.14741
-3.62538
2.96252
-3.26673
-3.27854
-3.2954
-3.32009
-3.35454
-3.40137
-3.46768
-3.5606
-3.68727
-3.86352
-4.11159
-4.43833
-4.88483
-5.43644
-5.96467
-5.87778
-5.51593
-4.70516
-2.19361
-3.43045
-3.44624
-3.46848
-3.5021
-3.54973
-3.61348
-3.69642
-3.79993
-3.92582
-4.08253
-4.28681
-4.54576
-4.90191
-5.45434
-6.06134
-5.9855
-5.6729
-5.13971
-5.03202
-3.59112
-3.60936
-3.63357
-3.67447
-3.73455
-3.81516
-3.91108
-4.02051
-4.14116
-4.27295
-4.42107
-4.58573
-4.76032
-5.05409
-5.47218
-5.59705
-5.5586
-5.50797
-4.66685
-3.74869
-3.76639
-3.79147
-3.83487
-3.90663
-4.00678
-4.11559
-4.22729
-4.33927
-4.4408
-4.52533
-4.58976
-4.60351
-4.60968
-4.65786
-4.80233
-4.97778
-4.8722
-2.80041
-3.90592
-3.92206
-3.94452
-3.98616
-4.0743
-4.20097
-4.32763
-4.43578
-4.52942
-4.59864
-4.62628
-4.60847
-4.51289
-4.32738
-4.17056
-4.04707
-4.19936
-2.72784
2.3876
-4.06911
-4.08689
-4.10697
-4.15261
-4.2664
-4.43318
-4.57358
-4.65704
-4.7172
-4.75682
-4.73959
-4.66745
-4.53021
-4.30112
-4.1
-3.74041
-2.14973
-0.34096
4.02221
-4.24644
-4.27731
-4.30815
-4.36373
-4.49584
-4.712
-4.8484
-4.87945
-4.89363
-4.90737
-4.8559
-4.75745
-4.62354
-4.51328
-4.32066
-4.48529
-1.43682
-0.539409
1.33397
-4.43384
-4.48781
-4.53913
-4.60041
-4.72532
-4.96769
-5.08653
-5.06405
-5.02704
-5.01857
-4.9377
-4.83118
-4.69116
-4.70282
-4.74007
-4.6848
-1.98585
-1.84542
-0.961015
-4.61274
-4.68703
-4.74866
-4.80055
-4.9012
-5.10903
-5.22501
-5.18127
-5.10372
-5.04977
-4.95035
-4.82821
-4.67734
-4.6491
-4.56883
-3.80239
-1.89446
-2.32826
-0.996063
-4.75556
-4.83355
-4.89032
-4.92628
-4.99458
-5.15245
-5.27074
-5.22151
-5.12134
-5.0307
-4.91337
-4.77858
-4.62644
-4.57674
-4.61105
-3.63094
-1.46978
-1.97665
0.0224962
-4.85987
-4.91963
-4.95978
-4.97594
-5.01594
-5.1348
-5.24691
-5.2126
-5.11577
-5.00867
-4.88557
-4.75435
-4.61254
-4.55436
-4.51368
-3.42524
-1.13891
-1.64728
0.865932
-4.93598
-4.96832
-4.98577
-4.98445
-4.99922
-5.0833
-5.18835
-5.18404
-5.10941
-5.0064
-4.8933
-4.76901
-4.64888
-4.58778
-4.50027
-3.25801
-1.21331
-1.4876
1.48975
-5.00465
-5.01798
-5.01706
-5.00265
-4.99464
-5.03801
-5.119
-5.14296
-5.09853
-5.0184
-4.92394
-4.8036
-4.6914
-4.60067
-4.49071
-3.62633
-1.87159
-1.9779
0.9584
-5.09286
-5.09202
-5.08087
-5.05971
-5.03757
-5.04097
-5.07013
-5.09247
-5.08433
-5.05251
-5.00746
-4.9446
-4.86254
-4.75764
-4.69826
-4.52577
-2.54282
-3.18454
-0.681451
-5.19342
-5.18693
-5.17317
-5.15237
-5.12842
-5.1099
-5.09661
-5.09502
-5.10374
-5.12864
-5.16035
-5.17993
-5.15426
-4.99828
-5.00538
-5.86408
-2.6408
-4.73261
-1.01088
-5.30423
-5.29702
-5.28487
-5.26813
-5.24865
-5.22997
-5.21435
-5.19697
-5.19954
-5.24124
-5.31355
-5.37416
-5.47123
-5.28691
-5.80787
-6.19195
-2.76021
-5.92713
3.29016
-5.42205
-5.41599
-5.40658
-5.39404
-5.37929
-5.36445
-5.35103
-5.34307
-5.34764
-5.37781
-5.45551
-5.53824
-5.67159
-5.74265
-5.88002
-5.4723
-3.9375
-2.51391
11.24
-5.54316
-5.53929
-5.53341
-5.52559
-5.5164
-5.50663
-5.49837
-5.49514
-5.50112
-5.51848
-5.56765
-5.64252
-5.72796
-5.79598
-5.74788
-5.47791
-5.1901
-4.34664
-2.79117
-5.66662
-5.66523
-5.66311
-5.66034
-5.65712
-5.65385
-5.65127
-5.65071
-5.65329
-5.65978
-5.66888
-5.67369
-5.64827
-5.72388
-5.90605
-6.09978
-6.65181
-6.51988
-12.9625
)
;

boundaryField
{
    leftWall
    {
        type            calculated;
        value           nonuniform List<scalar> 
50
(
648.419
589.18
529.239
469.188
409.681
351.433
295.242
241.239
159.546
65.9761
6.09578
-0.341655
-0.418126
-0.545753
-0.689217
-0.833645
-0.980738
-1.12791
-1.27439
-1.42049
-1.5662
-1.71159
-1.85662
-2.00129
-2.1456
-2.28955
-2.43315
-2.57643
-2.71938
-2.86201
-3.00433
-3.14635
-3.28808
-3.42952
-3.57068
-3.71155
-3.85214
-3.99245
-4.13249
-4.27227
-4.4118
-4.55109
-4.69014
-4.82893
-4.96742
-5.10714
-5.24565
-5.38391
-5.52169
-5.65987
)
;
    }
    rightWall
    {
        type            calculated;
        value           nonuniform List<scalar> 
50
(
1164.36
1097.22
989.749
856.406
704.933
498.059
298.544
178.209
145.474
143.818
145.576
167.405
199.057
250.584
366.447
545.982
652.3
572.638
374.336
216.18
148.539
140.791
134.432
119.31
128.691
114.879
111.377
93.6811
63.3904
31.1447
2.96252
-2.19361
-5.03202
-4.66685
-2.80041
2.3876
4.02221
1.33397
-0.961015
-0.996063
0.0224962
0.865932
1.48975
0.9584
-0.681451
-1.01088
3.29016
11.24
-2.79117
-12.9625
)
;
    }
    lowerWall
    {
        type            calculated;
        value           nonuniform List<scalar> 
62
(
677.849
674.773
677.796
685.083
695.8
704.535
710.813
716.164
722.997
732.715
745.668
761.732
780.596
802.025
825.784
851.378
877.598
902.221
920.73
930.673
919.417
920.255
965.386
935.99
870.92
810.184
760.935
719.17
675.31
620.168
553.558
396.394
519.844
563.625
512.528
187.993
187.904
187.769
187.589
187.386
187.151
186.978
181.153
188.022
188.19
188.488
188.825
189.375
190.238
191.4
192.036
192.605
198.376
181.991
159.27
162.033
174.75
190.637
270.88
581.623
1058.12
1179.93
)
;
    }
    atmosphere
    {
        type            calculated;
        value           nonuniform List<scalar> 
46
(
-5.72912
-5.72921
-5.72918
-5.7292
-5.72919
-5.72918
-5.72917
-5.72915
-5.72913
-5.72912
-5.7291
-5.72908
-5.72907
-5.72905
-5.72905
-5.72904
-5.72904
-5.72904
-5.72904
-5.72904
-5.72904
-5.72904
-5.72904
-5.72904
-5.72904
-5.72904
-5.72907
-5.7291
-5.7291
-5.72906
-5.72904
-5.72904
-5.72904
-5.72904
-5.72904
-5.72904
-5.72904
-5.72904
-5.78049
-5.73944
-5.78685
-5.87741
-6.01181
-5.98919
-6.29465
-109.5
)
;
    }
    defaultFaces
    {
        type            empty;
    }
}


// ************************************************************************* //
