/*--------------------------------*- C++ -*----------------------------------*\
| =========                 |                                                 |
| \\      /  F ield         | OpenFOAM: The Open Source CFD Toolbox           |
|  \\    /   O peration     | Version:  2206                                  |
|   \\  /    A nd           | Website:  www.openfoam.com                      |
|    \\/     M anipulation  |                                                 |
\*---------------------------------------------------------------------------*/
FoamFile
{
    version     2.0;
    format      ascii;
    arch        "LSB;label=32;scalar=64";
    class       volScalarField;
    location    "0.5";
    object      p_rgh;
}
// * * * * * * * * * * * * * * * * * * * * * * * * * * * * * * * * * * * * * //

dimensions      [1 -1 -2 0 0 0 0];

internalField   nonuniform List<scalar> 
2268
(
677.849
674.773
677.796
685.083
695.8
704.535
710.813
716.164
722.997
732.715
745.668
761.732
780.596
802.025
825.784
851.378
877.598
902.221
920.73
930.673
919.417
920.255
965.386
677.468
673.656
676.408
683.525
694.244
703.204
709.65
715.114
722.071
731.908
744.902
760.849
779.561
800.811
824.322
849.702
876.062
901.666
922.184
935.931
916.835
907.44
959.109
676.385
671.796
673.868
680.467
691.204
700.593
707.368
713.051
720.252
730.329
743.51
759.615
778.418
799.664
822.994
847.867
873.333
898.274
919.606
936.894
913.806
898.656
957.167
675.194
669.474
670.286
676.044
686.78
696.82
704.086
710.087
717.638
728.053
741.492
757.769
776.673
797.936
821.223
845.954
871.07
895.363
916.397
932.947
920.79
912.168
966.745
674.545
667.144
665.956
670.323
681.015
692.012
699.936
706.328
714.328
725.168
738.912
755.386
774.429
795.767
819.132
843.944
869.159
893.406
914.612
931.712
939.958
940.051
983.954
675.156
665.542
661.312
663.595
674.269
686.464
695.115
701.869
710.353
721.687
735.795
752.53
771.727
793.17
816.719
841.809
867.394
892.038
914.03
932.593
947.061
957.941
998.941
677.824
665.084
657.169
656.984
667.54
680.598
689.746
696.86
705.846
717.615
732.044
749.075
768.599
790.174
813.974
839.502
865.687
890.997
914.025
934.112
951.844
968.017
1002.64
682.68
668.052
655.317
650.862
660.722
673.977
683.218
691.065
701.028
713.346
727.959
744.837
764.584
786.546
810.865
837.196
864.292
890.41
914.452
935.853
954.707
972.864
994.873
188.022
188.19
188.488
188.825
189.375
190.238
191.4
192.036
192.605
198.376
181.991
159.27
162.033
174.75
190.637
270.88
581.623
1058.12
1179.93
187.992
188.143
188.469
188.762
189.264
190.183
191.675
191.814
182.964
148.503
133.639
135.513
139.971
142.789
144.856
168.214
349.935
894.059
1153.94
187.916
188.047
188.434
188.623
188.968
189.843
190.83
188.795
158.53
134.904
132.082
135.633
140.014
142.609
143.067
146.631
214.323
540.891
1084.31
187.795
187.878
188.385
188.435
188.447
189.2
189.551
179.077
145.521
131.522
130.429
134.864
139.786
142.45
142.622
143.181
167.756
324.226
968.843
187.651
187.592
188.331
188.195
187.587
187.85
187.484
167.123
138.362
128.887
128.807
133.719
139.29
142.244
142.712
142.214
147.575
213.603
890.66
187.479
187.381
188.629
188.036
186.704
186.467
184.453
156.904
134.57
126.834
126.878
132.19
138.532
141.897
142.616
142.271
142.422
167.521
751.552
187.365
192.63
191.54
187.887
186.29
186.6
179.563
150.999
132.924
125.797
125.181
130.716
137.704
141.465
142.44
142.256
142.174
151.56
598.381
270.701
240.08
191.444
187.275
185.987
184.876
177.284
149.976
133.45
125.933
124.628
129.98
137.132
141.139
142.261
142.064
142.287
142.198
517.14
693.013
676.678
646.085
612.565
624.888
649.98
666.168
678.335
691.864
706.014
721.983
739.891
759.38
780.38
805.098
832.523
861.462
889.398
915.411
939.122
957.93
969.957
951.44
650.185
476.006
284.833
187.752
226.334
295.019
335.739
373.906
432.696
496.488
563.194
629.88
694.097
753.779
794.448
826.854
860.35
890.396
918.916
945.872
968.393
985.875
1001.86
88.5008
0.963135
0.535093
0.738102
0.750046
0.792756
0.854115
0.936082
0.871051
19.8554
49.4652
91.9405
153.201
243.462
392.595
612.932
843.941
890.665
925.482
957.586
983.082
1007.32
1034.93
0.567396
0.579375
0.561036
0.64797
0.688668
0.72704
0.741444
0.749496
0.691514
0.570096
0.575879
0.589515
0.586969
0.565491
0.766586
31.5003
119.449
318.882
625.459
950.389
1000.76
1028.49
1056.47
0.616119
0.655821
0.653581
0.648405
0.658513
0.673536
0.676338
0.657912
0.596888
0.52373
0.513843
0.518838
0.523998
0.551818
0.649951
0.683024
0.761423
11.9261
50.7812
137.791
313.167
638.375
1028.03
0.613687
0.620235
0.62162
0.624536
0.632981
0.63907
0.636402
0.622679
0.594023
0.561145
0.546725
0.53966
0.524845
0.558111
0.745465
0.842395
0.968863
0.776594
0.957136
0.95525
12.4178
38.667
145.232
0.595418
0.599406
0.606057
0.603211
0.604053
0.604965
0.600079
0.587922
0.569139
0.550471
0.539138
0.533228
0.528811
0.602086
0.761529
0.735599
0.656591
0.699842
0.844846
0.937081
0.78015
0.884436
0.659404
0.576183
0.578218
0.580884
0.579332
0.578457
0.576399
0.570977
0.561373
0.548735
0.536639
0.528119
0.52256
0.515545
0.535799
0.508826
0.522493
0.547478
0.564829
0.727788
0.93873
0.92197
0.794653
0.316691
0.554286
0.555613
0.556827
0.555511
0.553819
0.550843
0.545715
0.538114
0.528802
0.519927
0.513381
0.509003
0.507417
0.501068
0.500428
0.504459
0.511305
0.513245
0.639687
0.612612
0.826722
0.72762
0.668634
0.532307
0.533385
0.53369
0.532354
0.530353
0.527236
0.522685
0.516621
0.50953
0.502559
0.496703
0.492319
0.489105
0.484808
0.482264
0.481033
0.477766
0.490773
0.714182
0.816016
0.580702
0.436953
0.52143
0.511022
0.511578
0.511357
0.509975
0.507915
0.50495
0.500995
0.496084
0.490518
0.484905
0.479785
0.475348
0.471422
0.467393
0.46318
0.45802
0.448987
0.459189
0.465778
0.780104
0.718852
0.445672
0.350505
0.490116
0.490279
0.489743
0.488348
0.486339
0.483602
0.480145
0.476043
0.471495
0.46682
0.462296
0.45799
0.453772
0.449179
0.443807
0.436686
0.426468
0.41129
0.380698
0.354212
0.733349
0.744795
0.753787
0.469598
0.469463
0.468765
0.467385
0.465471
0.462958
0.459884
0.456328
0.452425
0.448341
0.444209
0.440033
0.435663
0.43073
0.424929
0.417422
0.407466
0.393211
0.369727
0.333495
0.282403
0.650464
0.842701
0.449407
0.44913
0.448343
0.447
0.445189
0.44287
0.440085
0.436898
0.433402
0.429693
0.425802
0.421763
0.417392
0.412447
0.406642
0.399499
0.390478
0.378446
0.361387
0.337287
0.306162
0.278992
0.299379
0.429567
0.429223
0.428407
0.427115
0.425401
0.423244
0.420679
0.417757
0.414537
0.411072
0.407383
0.403445
0.399156
0.394343
0.388797
0.382235
0.374293
0.364443
0.352056
0.336761
0.319709
0.307139
0.306639
0.410092
0.409718
0.408905
0.407668
0.406043
0.404019
0.401625
0.398899
0.395879
0.392596
0.389059
0.385244
0.381081
0.376457
0.371238
0.365267
0.358365
0.350339
0.341075
0.33082
0.321059
0.315188
0.316061
0.390981
0.390593
0.389801
0.388619
0.387072
0.385158
0.382899
0.380322
0.377453
0.374311
0.370901
0.367209
0.363186
0.35877
0.353885
0.348462
0.342446
0.335837
0.328756
0.321637
0.315561
0.31216
0.312704
0.372227
0.37183
0.37107
0.369938
0.368461
0.366638
0.364486
0.362024
0.359271
0.356239
0.352935
0.34935
0.345459
0.341231
0.336634
0.331657
0.326321
0.320716
0.315036
0.309701
0.305469
0.303233
0.303665
0.353814
0.353423
0.352694
0.351607
0.350192
0.348443
0.346377
0.344004
0.341338
0.338391
0.33517
0.331671
0.327888
0.323808
0.31943
0.314771
0.30989
0.304903
0.300015
0.295574
0.292081
0.290038
0.289865
0.335733
0.335359
0.33466
0.333613
0.332249
0.330562
0.328562
0.326257
0.323658
0.320775
0.317615
0.314181
0.310473
0.306493
0.302256
0.297794
0.293174
0.288514
0.283992
0.279871
0.276491
0.274171
0.273201
0.31798
0.317625
0.316955
0.315941
0.314621
0.312982
0.311034
0.308782
0.306233
0.303397
0.300281
0.296888
0.293223
0.289294
0.285121
0.280739
0.276212
0.27164
0.267162
0.262971
0.259294
0.256339
0.254306
0.300546
0.300209
0.299564
0.298579
0.297295
0.295695
0.293789
0.291577
0.289067
0.286265
0.283176
0.279804
0.276151
0.272228
0.268052
0.263655
0.259088
0.254426
0.249772
0.245255
0.241027
0.237211
0.233917
0.28342
0.2831
0.282477
0.281515
0.280262
0.278696
0.276824
0.274646
0.272166
0.269388
0.266314
0.262944
0.259278
0.255322
0.251091
0.246604
0.241898
0.237023
0.232044
0.227042
0.222111
0.217318
0.212719
0.266593
0.266289
0.265684
0.264746
0.26352
0.261983
0.260141
0.257992
0.255536
0.252775
0.249706
0.246325
0.242628
0.238613
0.234288
0.229661
0.224751
0.219583
0.214191
0.208616
0.202903
0.197081
0.191169
0.250058
0.249769
0.249184
0.248268
0.247068
0.245558
0.243743
0.24162
0.239186
0.236438
0.233369
0.229969
0.226229
0.222141
0.217702
0.212909
0.207761
0.202261
0.196414
0.190224
0.1837
0.176839
0.169636
0.23381
0.23354
0.232975
0.232081
0.230906
0.229421
0.227633
0.225536
0.223124
0.22039
0.217321
0.213902
0.210119
0.205955
0.201398
0.196432
0.19104
0.1852
0.178891
0.172086
0.164761
0.156883
0.148426
0.217848
0.217597
0.217055
0.216183
0.215032
0.213575
0.211816
0.209747
0.207361
0.204645
0.201582
0.198151
0.194333
0.190104
0.185441
0.180317
0.174695
0.168536
0.161789
0.154401
0.146314
0.137464
0.127805
0.202171
0.201936
0.201419
0.200569
0.199445
0.198019
0.196293
0.194259
0.191906
0.189217
0.186171
0.182743
0.178907
0.174634
0.169892
0.164639
0.158825
0.152387
0.145256
0.137348
0.12857
0.118815
0.108022
0.186775
0.18655
0.186061
0.185232
0.184141
0.182752
0.181068
0.179078
0.176768
0.174118
0.171105
0.167701
0.163873
0.159587
0.154801
0.149464
0.143509
0.13686
0.129423
0.121088
0.111731
0.101147
0.0893093
0.17166
0.171428
0.170975
0.170171
0.169119
0.167774
0.16614
0.164203
0.161949
0.159356
0.156398
0.153043
0.149256
0.144996
0.140213
0.134847
0.128822
0.122045
0.114401
0.105752
0.0958229
0.0846641
0.0719467
0.156813
0.156572
0.15616
0.155379
0.154376
0.15308
0.151506
0.149635
0.147453
0.144937
0.14206
0.138786
0.135077
0.130887
0.126163
0.120837
0.114825
0.108022
0.100281
0.0913771
0.081307
0.0697156
0.0563207
0.142227
0.141977
0.141609
0.140849
0.139901
0.138661
0.137157
0.135367
0.133276
0.130861
0.128093
0.124934
0.121345
0.117277
0.112674
0.107464
0.101561
0.094856
0.0871093
0.0783332
0.0682237
0.0564879
0.0427653
0.127892
0.127632
0.127307
0.126564
0.12568
0.124503
0.123082
0.121389
0.119409
0.11712
0.11449
0.111484
0.108058
0.104167
0.0997492
0.0947346
0.0890301
0.0824624
0.0750522
0.0665244
0.0566536
0.0451365
0.031577
0.113798
0.113532
0.113236
0.11251
0.111697
0.110591
0.109268
0.107689
0.105842
0.103704
0.101243
0.0984241
0.0952064
0.091542
0.0873722
0.082627
0.0772283
0.0710635
0.0640446
0.0559666
0.0466158
0.035715
0.0228828
0.0999427
0.0996613
0.0993894
0.0986798
0.0979471
0.0969241
0.0957157
0.0942702
0.0925783
0.0906168
0.0883568
0.0857645
0.0828026
0.0794254
0.075576
0.0711823
0.0661489
0.060524
0.0540521
0.0466148
0.0380452
0.0281311
0.0165648
0.0863417
0.0859883
0.0857306
0.0850432
0.0844056
0.0834818
0.0824049
0.0811111
0.0795951
0.0778361
0.0758087
0.0734835
0.0708272
0.0677995
0.0643532
0.0604314
0.0559421
0.0508326
0.0450057
0.0383709
0.0307954
0.0221422
0.0122415
0.0730463
0.0724499
0.0721433
0.0715349
0.0710163
0.0702098
0.0692794
0.068154
0.0668342
0.0653033
0.0635394
0.0615165
0.0592054
0.0565734
0.0535912
0.0502484
0.0465689
0.041871
0.03678
0.0310805
0.0246492
0.0174075
0.00928628
0.0585217
0.0586674
0.0585681
0.0580858
0.0576929
0.0570136
0.0562376
0.0552928
0.054185
0.0528997
0.0514161
0.0497109
0.0477584
0.0455293
0.0429951
0.0401373
0.0369581
0.0332478
0.0291339
0.0244951
0.0192848
0.0134893
0.00713062
0.0452073
0.0452265
0.0451623
0.0447811
0.0444955
0.0439488
0.0433342
0.042582
0.0416985
0.0406695
0.0394774
0.0381042
0.0365273
0.0347133
0.0326178
0.0301886
0.0273789
0.0250157
0.0220041
0.0184767
0.014491
0.0100936
0.00534716
0.0321388
0.0320866
0.0320456
0.0317549
0.0315648
0.0311614
0.0307188
0.030172
0.0295271
0.0287743
0.0279025
0.026898
0.0257404
0.0243989
0.0228338
0.0209847
0.0187557
0.0174293
0.0153796
0.0129027
0.0101007
0.00703176
0.00375999
0.0195555
0.0194288
0.0194273
0.0192261
0.0191312
0.0188856
0.0186265
0.0183034
0.0179241
0.0174835
0.0169733
0.0163848
0.0157074
0.0149284
0.0140389
0.013046
0.0119874
0.0105747
0.00918484
0.00766037
0.00598521
0.00417645
0.00227389
0.00657234
0.00649493
0.00651366
0.00641999
0.00640678
0.00632466
0.00624797
0.00615213
0.00604032
0.00590834
0.00575396
0.00557684
0.00537405
0.00514213
0.0048882
0.00464519
0.00450782
0.00369589
0.00311414
0.00257258
0.00200935
0.00141687
0.00080742
867.238
989.629
1034.49
983.378
1003.06
1028.83
1044.62
868.882
1049.34
1069.26
1076.5
591.266
1085.01
1115.14
1127.89
485.625
1127.98
1165.3
1201.05
625.097
557.873
1141.5
1268.38
919.853
11.2059
278.51
1158.17
1280.43
0.195404
0.299343
147.997
1211.04
0.339497
0.380058
0.350609
117.371
0.402413
0.429919
0.417255
0.47971
0.398487
0.488256
0.837299
0.622917
0.866976
0.966423
0.986773
0.480278
0.823673
0.809086
0.430888
0.418498
0.365658
0.369101
0.38797
0.419849
0.321071
0.348653
0.378118
0.408982
0.325562
0.344147
0.367792
0.396665
0.318637
0.333345
0.353158
0.37928
0.307905
0.3186
0.334561
0.356695
0.292383
0.300206
0.312257
0.329549
0.274083
0.278939
0.286738
0.298594
0.253333
0.255605
0.258648
0.264795
0.230722
0.228052
0.228565
0.229228
0.207481
0.201927
0.197403
0.192912
0.183947
0.175405
0.16675
0.157132
0.160485
0.149012
0.136649
0.122724
0.137412
0.123127
0.107417
0.0899774
0.115
0.0979984
0.0791357
0.058708
0.0934832
0.0737577
0.0515413
0.0276648
0.0731115
0.0505317
0.0241743
-0.00546119
0.0542041
0.0286386
-0.00291565
-0.0427136
0.037282
0.00888757
-0.0283358
-0.0815512
0.0229627
-0.0074867
-0.049057
-0.113318
0.0118608
-0.0187949
-0.0614848
-0.127096
0.00429398
-0.0240654
-0.06361
-0.120886
4.27186e-05
-0.0239388
-0.0562171
-0.0994298
-0.00154147
-0.0209095
-0.0442814
-0.0703246
-0.00173257
-0.016335
-0.0320051
-0.0461971
-0.0013636
-0.0117905
-0.0217549
-0.0285758
-0.000830434
-0.00797163
-0.0140048
-0.0167744
-0.000404268
-0.00503133
-0.00846023
-0.00926549
-8.24382e-05
-0.00277292
-0.00440919
-0.0044502
5.34071e-05
-0.000788345
-0.00126046
-0.00115162
599.307
247.067
184.427
184.912
183.51
184.979
182.895
158.095
137.984
128.529
126.077
130.665
137.037
141.14
142.184
142.035
141.957
140.35
538.596
363.219
180.188
182.134
181.029
177.707
185.884
203.898
179.938
153.372
139.821
135.12
135.997
139.385
141.485
142.201
142.334
142.229
142.447
678.394
181.383
178.881
180.394
178.289
172.647
171.277
207.601
197.257
162.463
149.948
138.938
139.95
139.936
140.354
141.458
141.907
141.927
170.782
835.243
179.209
178.967
179.25
177.657
173.646
169.638
204.777
176.886
164.717
198.397
149.293
139.974
138.996
140.31
141.084
141.55
141.728
450.905
998.738
179.167
179.293
179.223
178.585
176.646
174.603
188.776
178.568
170.785
333.292
456.811
138.439
137.989
139.633
141.728
141.667
141.98
762.746
1152.86
188.097
179.56
179.655
179.644
178.613
176.716
175.027
174.939
176.608
281.95
825.684
217.123
240.586
486.258
271.245
141.41
141.663
999.873
1321.9
887.351
179.812
179.86
180.033
179.349
177.845
176.699
176.584
177.007
177.483
761.902
1278.15
1279.5
1308.86
1089.74
269.119
437.674
1315.88
1554.42
1278.52
1021.11
534.468
620.626
902.63
941.468
882.056
746.129
676.01
839.644
1308.19
1384.68
1397.45
1409.5
1426.4
1419.3
1509.47
1696.3
1849.75
628.106
946.91
1305.3
1331.82
1334.59
1339.12
1346.87
1351.94
1358.67
1365.95
1356.72
1292.27
1115.65
1132.71
1378.7
1595.73
1751.99
1927.71
2071.85
6.10111
125.225
400.307
683.002
928.836
964.011
922.953
852.321
764.66
624.526
398.649
187.646
113.724
119.379
158.406
491.067
1531.16
1962.16
2107.96
0.402609
0.372412
0.374461
5.14567
32.712
38.9111
32.5013
19.8753
8.72828
3.28035
3.18868
3.98539
5.66348
6.29326
6.72964
12.9983
651.486
1871.05
2025.19
0.448165
0.422265
0.474214
0.556281
0.612049
0.640617
0.715494
0.948103
1.49021
2.17759
2.68952
3.46838
6.18504
6.44302
9.80819
16.033
781.308
1875.84
1982.13
0.445691
0.463734
0.49657
0.547032
0.595066
0.68118
0.809118
1.01345
1.3105
1.56059
1.65553
1.93897
110.995
476.699
670.271
863.83
1687.63
1946.52
1861.43
0.446488
0.473832
0.513964
0.564671
0.625659
0.709746
0.822313
0.970408
1.13736
1.22521
1.2728
2.21974
506.646
1821.38
2018.08
2057.87
2084.16
2075.12
1940.71
0.44159
0.472861
0.512232
0.560884
0.621157
0.696703
0.783464
0.878724
0.968945
0.985557
0.89733
2.37121
611.944
1922.64
2145.76
2177.15
2201.73
2207.16
2208.28
0.428629
0.459084
0.496162
0.540747
0.59449
0.659598
0.724889
0.780053
0.801013
0.75022
1.05088
0.559889
5.87926
1153.09
2215.28
2228.95
2236.1
2282.72
2322.75
0.408249
0.435512
0.468231
0.50701
0.552137
0.603745
0.6557
0.692713
0.689177
0.623659
0.577577
0.782661
17.4648
1129.08
2248.24
1657
894.829
1703.72
2158.61
0.381267
0.404154
0.431191
0.462825
0.499241
0.538509
0.577057
0.603986
0.599799
0.558964
0.515661
0.596052
46.268
1366.35
2298.18
1282.7
519.64
536.588
664.518
0.348758
0.366351
0.386831
0.410627
0.4377
0.46618
0.491429
0.503301
0.486486
0.436334
0.352003
0.331238
5.72427
1031.21
2302.18
2130.87
784.846
557.94
566.366
0.311705
0.323509
0.336904
0.352065
0.369115
0.385163
0.394673
0.388198
0.350386
0.278201
0.170308
0.120213
0.815668
281.332
1103.56
1678.02
1077.89
569.29
636.203
0.271517
0.277197
0.283065
0.28912
0.295171
0.297275
0.288545
0.258039
0.191166
0.0698221
-0.11402
-0.102728
5.54943
-0.769331
-0.651414
29.3006
514.945
1201.38
1223.11
0.22963
0.229174
0.227289
0.223887
0.219367
0.204654
0.175193
0.119359
0.0205581
-0.151545
-0.391643
-0.766502
1.62107
-0.942341
-1.22293
-1.04355
40.4409
757.283
1238.69
0.187333
0.180818
0.171045
0.156067
0.133731
0.106742
0.0591518
-0.0182759
-0.138086
-0.325197
-0.552471
-1.00547
0.130913
2.85753
-1.49459
-1.49213
-1.11361
1.10088
1258.29
0.146212
0.13441
0.117555
0.092856
0.058611
0.0117183
-0.043532
-0.14451
-0.274096
-0.450354
-0.649231
-1.02412
-0.840089
3.04836
-0.69686
-1.6931
-1.33126
10.1605
1299.95
0.107687
0.0918948
0.0696602
0.0360519
-0.0112898
-0.0751385
-0.144834
-0.261398
-0.387449
-0.544153
-0.746517
-1.00661
-1.35731
3.34171
1.34379
-1.64686
-1.31385
0.0195638
1118.73
0.0722098
0.053972
0.0297587
-0.0111353
-0.0709753
-0.151673
-0.247594
-0.31716
-0.452091
-0.609253
-0.75699
-0.921371
-1.09594
3.48278
3.07808
-0.756123
-0.916206
-0.666696
1094.2
0.039838
0.0221333
-0.00294144
-0.046341
-0.117928
-0.218092
-0.326912
-0.288498
-0.379784
-0.632402
-0.735743
-0.800168
-0.813922
0.236542
0.455899
-0.00242254
12.8181
0.22633
1129.98
0.00779768
-0.0083395
-0.0307932
-0.0722829
-0.153752
-0.286511
-0.413739
-0.425434
-0.439087
-0.547069
-0.711398
-0.693653
-0.598014
-0.412422
-0.252166
-0.09825
78.3151
2.88682
1014.84
-0.0301923
-0.047968
-0.049359
0.113947
0.380411
0.057883
-0.503993
-0.596014
-0.51052
-0.474152
-0.6306
-0.567308
-0.490022
-0.257585
-0.0559656
40.4883
87.0822
7.23143
864.696
-0.0823351
-0.113162
-0.0341227
0.75136
0.621188
0.404532
-0.442402
-0.693238
-0.553736
-0.49061
-0.439266
-0.340261
-0.278329
-0.343778
-0.15118
170.442
88.5307
9.4948
777.147
-0.14454
-0.198504
-0.137818
0.337845
0.543787
0.303186
-0.138677
-0.752528
-0.627015
-0.469016
-0.387548
-0.280468
-0.141173
-0.412659
33.0565
199.123
69.3277
10.8766
786.229
-0.198238
-0.27253
-0.334161
-0.385991
-0.232078
0.310703
0.166731
-0.754844
-0.653111
-0.379037
-0.310742
-0.145012
0.00600529
-0.233812
68.5738
207.997
72.4532
24.8434
816.777
-0.215866
-0.293862
-0.350624
-0.386584
-0.454879
-0.440484
0.032157
-0.675035
-0.573742
-0.399539
-0.277814
-0.0709645
-0.00987614
-0.0364797
59.5959
216.329
70.4147
23.9694
789.427
-0.194986
-0.254745
-0.294896
-0.311056
-0.351057
-0.4699
-0.581877
-0.528549
-0.445136
-0.307895
-0.0870033
-0.0572664
0.0529309
0.111064
80.3237
224.432
81.6013
24.9592
487.765
-0.145901
-0.178242
-0.19569
-0.194369
-0.20914
-0.290687
-0.380677
-0.354195
-0.314806
-0.172605
0.0332445
0.0574135
0.14176
0.202854
131.195
231.495
104.436
25.8896
479.902
-0.0893783
-0.102705
-0.101788
-0.0873777
-0.0793571
-0.103145
-0.153001
-0.186185
-0.180377
-0.0733999
0.0912276
0.121118
0.22444
0.31517
180.552
237.262
120.798
26.4914
756.086
-0.052387
-0.0515512
-0.0403982
-0.0192378
0.00289757
0.0179742
0.0223546
-0.00100295
-0.041751
-0.0106708
0.0355621
0.0961586
0.178499
0.283413
163.356
242.499
132.176
26.7626
1015.9
-0.0277519
-0.0212622
-0.00750779
0.0132926
0.037249
0.055773
0.0862328
0.121912
0.084435
0.0371974
0.0053262
-0.0141163
0.0115991
0.168297
136.8
247.094
165.603
46.3063
1047.99
-0.0133751
-0.00615873
0.00598524
0.0227302
0.0422077
0.0608929
0.0768429
0.106241
0.114408
0.051654
-0.0226931
-0.0832867
-0.180333
2.98219
14.2993
249.497
196.414
97.1469
1077.72
-0.00599571
6.41204e-05
0.00946884
0.022009
0.0367592
0.0516082
0.0650235
0.0729899
0.0697051
0.0407908
-0.0394573
0.108368
0.063033
3.71554
-0.461983
43.5832
146.192
140.072
1111.09
-0.00190845
0.00196319
0.00784271
0.0156601
0.0248438
0.0346156
0.0428819
0.046112
0.0401262
0.0229252
-0.0263993
0.176878
0.121504
-0.142615
-0.206623
0.0633418
5.11703
1.19461
859.55
-0.00018177
0.00121273
0.00333152
0.00610639
0.0093219
0.012591
0.0151719
0.0157349
0.0131479
0.00666406
-0.00243549
0.0436429
0.0286195
-0.0574377
-0.239605
-0.433336
-0.985363
-0.853433
95.3414
)
;

boundaryField
{
    leftWall
    {
        type            fixedFluxPressure;
        gradient        uniform 0;
        value           nonuniform List<scalar> 
50
(
677.849
677.468
676.385
675.194
674.545
675.156
677.824
682.68
693.013
650.185
88.5008
0.567396
0.616119
0.613687
0.595418
0.576183
0.554286
0.532307
0.511022
0.490116
0.469598
0.449407
0.429567
0.410092
0.390981
0.372227
0.353814
0.335733
0.31798
0.300546
0.28342
0.266593
0.250058
0.23381
0.217848
0.202171
0.186775
0.17166
0.156813
0.142227
0.127892
0.113798
0.0999427
0.0863417
0.0730463
0.0585217
0.0452073
0.0321388
0.0195555
0.00657234
)
;
    }
    rightWall
    {
        type            fixedFluxPressure;
        gradient        uniform 0;
        value           nonuniform List<scalar> 
50
(
1179.93
1153.94
1084.31
968.843
890.66
751.552
598.381
517.14
538.596
678.394
835.243
998.738
1152.86
1321.9
1554.42
1849.75
2071.85
2107.96
2025.19
1982.13
1861.43
1940.71
2208.28
2322.75
2158.61
664.518
566.366
636.203
1223.11
1238.69
1258.29
1299.95
1118.73
1094.2
1129.98
1014.84
864.696
777.147
786.229
816.777
789.427
487.765
479.902
756.086
1015.9
1047.99
1077.72
1111.09
859.55
95.3414
)
;
    }
    lowerWall
    {
        type            fixedFluxPressure;
        gradient        uniform 0;
        value           nonuniform List<scalar> 
62
(
677.849
674.773
677.796
685.083
695.8
704.535
710.813
716.164
722.997
732.715
745.668
761.732
780.596
802.025
825.784
851.378
877.598
902.221
920.73
930.673
919.417
920.255
965.386
965.386
959.109
957.167
966.745
983.954
998.941
1002.64
994.873
867.238
989.629
1034.49
983.378
188.022
187.992
187.916
187.795
187.651
187.479
187.365
270.701
188.022
188.19
188.488
188.825
189.375
190.238
191.4
192.036
192.605
198.376
181.991
159.27
162.033
174.75
190.637
270.88
581.623
1058.12
1179.93
)
;
    }
    atmosphere
    {
        type            totalPressure;
        rho             rho;
        psi             none;
        gamma           1;
        p0              uniform 0;
        value           nonuniform List<scalar> 
46
(
-7.57118e-05
-0.000174317
-0.000144332
-0.000159971
-0.000147452
-0.000140069
-0.00012702
-0.00011174
-9.47735e-05
-7.68932e-05
-5.90034e-05
-4.20782e-05
-2.70996e-05
-1.49092e-05
-6.11387e-06
-1.13592e-06
0
0
0
0
0
0
0
0
0
-2.67628e-06
-2.91241e-05
-6.29752e-05
-6.4336e-05
-2.3302e-05
0
0
0
0
0
0
0
0
0
-0.0104003
-0.0578149
-0.148365
-0.282768
-0.260149
-0.565611
0
)
;
    }
    defaultFaces
    {
        type            empty;
    }
}


// ************************************************************************* //
