/*--------------------------------*- C++ -*----------------------------------*\
| =========                 |                                                 |
| \\      /  F ield         | OpenFOAM: The Open Source CFD Toolbox           |
|  \\    /   O peration     | Version:  2206                                  |
|   \\  /    A nd           | Website:  www.openfoam.com                      |
|    \\/     M anipulation  |                                                 |
\*---------------------------------------------------------------------------*/
FoamFile
{
    version     2.0;
    format      ascii;
    arch        "LSB;label=32;scalar=64";
    class       surfaceScalarField;
    location    "0.5";
    object      phi;
}
// * * * * * * * * * * * * * * * * * * * * * * * * * * * * * * * * * * * * * //

dimensions      [0 3 -1 0 0 0 0];

oriented        oriented;

internalField   nonuniform List<scalar> 
4432
(
-3.81598e-06
3.81598e-06
-5.29962e-06
1.48364e-06
-3.28609e-06
-2.01353e-06
9.65655e-07
-4.25175e-06
6.44645e-06
-5.4808e-06
1.20012e-05
-5.55472e-06
1.67302e-05
-4.72899e-06
2.02262e-05
-3.49607e-06
2.25053e-05
-2.27906e-06
2.37714e-05
-1.26607e-06
2.42387e-05
-4.67376e-07
2.40335e-05
2.05197e-07
2.3175e-05
8.58566e-07
2.16055e-05
1.56952e-06
1.90775e-05
2.528e-06
1.51614e-05
3.91604e-06
9.42531e-06
5.73611e-06
2.13491e-06
7.29039e-06
-4.16429e-06
6.29921e-06
-9.87276e-06
5.70846e-06
-1.76998e-05
7.82702e-06
-1.63666e-05
-1.33315e-06
-1.63666e-05
-4.0986e-06
7.91458e-06
-4.97592e-06
2.36096e-06
-2.80502e-06
-4.18444e-06
1.42642e-06
-8.48318e-06
6.83769e-06
-1.08921e-05
1.23243e-05
-1.10414e-05
1.69741e-05
-9.37873e-06
2.03896e-05
-6.91157e-06
2.26132e-05
-4.50267e-06
2.38719e-05
-2.52478e-06
2.44118e-05
-1.00734e-06
2.44673e-05
1.49749e-07
2.42405e-05
1.08537e-06
2.38191e-05
1.99093e-06
2.32246e-05
3.12249e-06
2.22345e-05
4.90616e-06
2.00894e-05
7.88119e-06
1.53123e-05
1.20675e-05
6.89075e-06
1.47208e-05
-4.17475e-06
1.6774e-05
-1.19164e-05
1.55687e-05
-9.92363e-06
-3.32595e-06
-2.62903e-05
-3.48494e-06
1.13995e-05
-4.06947e-06
2.94548e-06
-1.94723e-06
-6.30667e-06
2.0324e-06
-1.24628e-05
7.21789e-06
-1.60776e-05
1.2553e-05
-1.63764e-05
1.70383e-05
-1.38641e-05
2.02636e-05
-1.01369e-05
2.2325e-05
-6.56406e-06
2.34939e-05
-3.69371e-06
2.40119e-05
-1.5253e-06
2.40526e-05
1.09082e-07
2.37162e-05
1.42175e-06
2.31006e-05
2.60655e-06
2.2323e-05
3.90002e-06
2.15983e-05
5.63086e-06
2.11814e-05
8.29809e-06
2.03625e-05
1.28865e-05
1.66735e-05
1.84097e-05
9.17663e-06
2.42709e-05
-9.08789e-08
2.48362e-05
-1.42804e-06
-1.98879e-06
-2.77183e-05
-2.589e-06
1.39885e-05
-2.76928e-06
3.12576e-06
-7.99864e-07
-8.27609e-06
2.69159e-06
-1.59543e-05
7.51693e-06
-2.09029e-05
1.26586e-05
-2.15181e-05
1.69624e-05
-1.81679e-05
1.99776e-05
-1.31521e-05
2.18619e-05
-8.44835e-06
2.2942e-05
-4.77383e-06
2.34743e-05
-2.0576e-06
2.36051e-05
-2.17284e-08
2.34184e-05
1.60851e-06
2.29556e-05
3.0693e-06
2.2251e-05
4.60467e-06
2.14082e-05
6.47361e-06
2.07702e-05
8.93611e-06
2.09226e-05
1.2734e-05
2.11015e-05
1.82308e-05
1.96107e-05
2.57617e-05
1.59573e-05
2.84897e-05
8.4935e-06
5.47499e-06
-1.92248e-05
-1.39751e-06
1.5386e-05
-9.18003e-07
2.64625e-06
8.57696e-07
-1.00518e-05
3.89583e-06
-1.89924e-05
8.23369e-06
-2.52408e-05
1.29506e-05
-2.6235e-05
1.68646e-05
-2.20819e-05
1.95561e-05
-1.58436e-05
2.12418e-05
-1.0134e-05
2.22625e-05
-5.79458e-06
2.28504e-05
-2.64547e-06
2.31192e-05
-2.90588e-07
2.31228e-05
1.60491e-06
2.28893e-05
3.30285e-06
2.24376e-05
5.05633e-06
2.18247e-05
7.08652e-06
2.1175e-05
9.58587e-06
2.10195e-05
1.28895e-05
2.20349e-05
1.72154e-05
2.39199e-05
2.38767e-05
2.3645e-05
2.87645e-05
1.49835e-05
1.41365e-05
-4.24127e-06
1.12978e-07
1.52731e-05
1.81117e-06
9.48054e-07
3.89071e-06
-1.21313e-05
6.88254e-06
-2.19842e-05
1.05584e-05
-2.89166e-05
1.42552e-05
-2.99318e-05
1.72193e-05
-2.5046e-05
1.92456e-05
-1.78699e-05
2.05884e-05
-1.14768e-05
2.15294e-05
-6.73553e-06
2.22113e-05
-3.32738e-06
2.26729e-05
-7.52211e-07
2.29046e-05
1.37321e-06
2.2904e-05
3.30346e-06
2.2683e-05
5.27733e-06
2.23187e-05
7.45076e-06
2.19263e-05
9.9783e-06
2.16855e-05
1.31303e-05
2.21689e-05
1.6732e-05
2.43525e-05
2.16931e-05
2.55775e-05
2.75396e-05
1.78484e-05
2.18656e-05
1.36072e-05
2.41325e-06
1.28598e-05
5.71138e-06
-2.35008e-06
9.28773e-06
-1.57077e-05
1.27348e-05
-2.54313e-05
1.529e-05
-3.14718e-05
1.7083e-05
-3.17248e-05
1.84365e-05
-2.63995e-05
1.94611e-05
-1.88945e-05
2.02868e-05
-1.23026e-05
2.10293e-05
-7.47802e-06
2.17203e-05
-4.01837e-06
2.232e-05
-1.35194e-06
2.27817e-05
9.11584e-07
2.3033e-05
3.05212e-06
2.30382e-05
5.27218e-06
2.28721e-05
7.61679e-06
2.26873e-05
1.01632e-05
2.25938e-05
1.32238e-05
2.2677e-05
1.66488e-05
2.3923e-05
2.04471e-05
2.51568e-05
2.63058e-05
1.97308e-05
2.72916e-05
3.33379e-05
4.73109e-06
8.12872e-06
1.08495e-05
-8.46847e-06
1.7071e-05
-2.19292e-05
2.07799e-05
-2.91402e-05
2.13163e-05
-3.20083e-05
2.05154e-05
-3.09238e-05
2.00711e-05
-2.59552e-05
2.02196e-05
-1.9043e-05
2.06912e-05
-1.27741e-05
2.12877e-05
-8.07452e-06
2.19223e-05
-4.65299e-06
2.24975e-05
-1.92711e-06
2.28924e-05
5.16678e-07
2.32462e-05
2.69823e-06
2.33958e-05
5.12258e-06
2.3436e-05
7.57668e-06
2.34637e-05
1.01354e-05
2.3547e-05
1.31404e-05
2.36369e-05
1.65589e-05
2.41544e-05
1.99297e-05
2.4673e-05
2.57872e-05
2.03712e-05
3.15934e-05
5.37091e-05
-1.15771e-06
1.15771e-06
1.87765e-06
-3.03532e-06
8.25427e-06
-6.37634e-06
8.5211e-06
-2.66846e-07
1.02495e-06
7.49593e-06
-1.53117e-05
1.63362e-05
-3.58561e-05
2.05447e-05
-0.000107298
7.1442e-05
-0.000231251
0.000123953
-0.000317057
8.5806e-05
-0.000332854
1.57965e-05
-0.000308764
-2.40895e-05
-0.000269189
-3.95755e-05
-0.000233915
-3.52738e-05
-0.000196063
-3.78524e-05
-0.000158903
-3.71594e-05
-0.000114244
-4.46589e-05
-4.35678e-05
-7.06765e-05
-4.35678e-05
-7.58767e-06
8.74543e-06
-6.92518e-06
-3.69771e-06
-9.88497e-07
-1.23128e-05
-5.58818e-08
-1.19973e-06
-6.99381e-06
1.4434e-05
-3.79588e-05
4.73007e-05
-0.000150926
0.000133512
-0.000295194
0.00021571
-0.000427119
0.000255878
-0.000501581
0.000160268
-0.000442453
-4.33306e-05
-0.000362053
-0.000104489
-0.000332672
-6.89571e-05
-0.000309302
-5.86439e-05
-0.00027073
-7.64242e-05
-0.000211851
-9.60382e-05
-0.000140265
-0.000116245
-5.10484e-05
-0.000159893
-9.46162e-05
-1.17532e-05
2.04989e-05
-1.28713e-05
-2.57943e-06
-1.6795e-06
-2.35049e-05
8.11492e-06
-1.09943e-05
4.13398e-06
1.8415e-05
-6.00579e-05
0.000111492
-0.000192271
0.000265725
-0.000329653
0.000353091
-0.000437075
0.0003633
-0.000440946
0.00016414
-0.000420514
-6.37626e-05
-0.000378635
-0.000146368
-0.000340727
-0.000106865
-0.000333791
-6.55799e-05
-0.000331243
-7.89722e-05
-0.000291015
-0.000136266
-0.000196244
-0.000211016
-6.37059e-05
-0.000292432
-0.000158322
-1.58561e-05
3.63553e-05
-1.86425e-05
2.07355e-07
3.91951e-06
-4.60671e-05
2.23905e-05
-2.94654e-05
7.71382e-06
3.30915e-05
-9.3578e-05
0.000212784
-0.000216502
0.000388649
-0.000328422
0.000465011
-0.000391256
0.000426133
-0.000384565
0.00015745
-0.000360724
-8.76035e-05
-0.000299045
-0.000208048
-0.000218743
-0.000187168
-0.000185012
-9.93106e-05
-0.000197228
-6.67555e-05
-0.00022014
-0.000113354
-0.000168907
-0.000262249
-6.38766e-05
-0.000397462
-0.000222199
-2.04352e-05
5.67906e-05
-2.65884e-05
6.36066e-06
1.09884e-05
-8.3644e-05
2.86345e-05
-4.71115e-05
-6.34958e-06
6.80762e-05
-0.000112639
0.000319074
-0.000221048
0.000497059
-0.000309095
0.000553058
-0.000321142
0.000438181
-0.000321396
0.000157704
-0.000309421
-9.95785e-05
-0.000246859
-0.00027061
-0.00015152
-0.000282506
-6.47049e-05
-0.000186126
-4.62665e-05
-8.51943e-05
-8.38118e-05
-7.58091e-05
-9.73402e-05
-0.000248721
-4.4344e-05
-0.000450458
-0.000266543
-1.78315e-05
7.46222e-05
4.98207e-06
-1.64532e-05
3.62393e-05
-0.000114901
9.45718e-06
-2.03295e-05
-4.30672e-05
0.000120601
-0.000117116
0.000393122
-0.000210239
0.000590182
-0.000263071
0.000605889
-0.000246361
0.00042147
-0.000241744
0.000153087
-0.000234645
-0.000106678
-0.000183215
-0.00032204
-0.000107326
-0.000358395
-2.42421e-05
-0.00026921
4.42569e-05
-0.000153694
4.37713e-05
-7.53234e-05
-3.20384e-05
-0.000172911
-2.44067e-05
-0.00045809
-0.000290949
5.00466e-05
2.45757e-05
0.000110371
-7.67774e-05
7.02988e-05
-7.48291e-05
-3.8696e-05
8.86654e-05
-0.000122639
0.000204544
-0.000158272
0.000428755
-0.00018995
0.00062186
-0.000187084
0.000603023
-0.000142942
0.000377328
-0.000130421
0.000140567
-0.000130787
-0.000106312
-9.63507e-05
-0.000356477
-4.77071e-05
-0.000407039
5.88856e-06
-0.000322805
5.2696e-05
-0.000200501
0.000101628
-0.000124255
4.51859e-05
-0.000116469
-1.58287e-05
-0.000397075
-0.000306778
0.000100958
-7.63825e-05
0.000116175
-9.19946e-05
5.13315e-05
-9.98531e-06
-8.7682e-05
0.00022768
-0.000168398
0.000285259
-0.000172391
0.000432749
-0.000142701
0.00059217
-7.73254e-05
0.000537647
-1.40767e-05
0.00031408
-4.28292e-06
0.000130773
9.44259e-06
-0.000120038
1.37682e-05
-0.000360802
2.56441e-05
-0.000418915
4.42921e-05
-0.000341454
6.40108e-05
-0.00022022
9.36724e-05
-0.000153917
9.77028e-05
-0.000120499
-6.0557e-06
-0.000293317
-0.000312834
1.827e-05
-1.01413e-05
4.18541e-05
-3.20526e-05
5.92852e-05
-3.93603e-05
6.17684e-05
-3.16234e-05
5.46118e-05
-2.48517e-05
4.66635e-05
-2.29755e-05
4.25283e-05
-2.182e-05
4.22847e-05
-1.87995e-05
4.42712e-05
-1.47606e-05
4.69587e-05
-1.0762e-05
4.94762e-05
-7.1705e-06
5.13635e-05
-3.81437e-06
5.25695e-05
-6.89347e-07
5.2623e-05
2.64473e-06
5.2179e-05
5.56657e-06
5.17374e-05
8.01828e-06
5.18689e-05
1.0004e-05
5.23368e-05
1.26726e-05
5.32275e-05
1.56681e-05
5.49634e-05
1.81938e-05
5.88445e-05
2.19061e-05
6.6751e-05
2.36869e-05
3.96818e-05
8.07783e-05
2.79232e-05
-3.80645e-05
5.74633e-05
-6.15926e-05
6.61576e-05
-4.80546e-05
5.07958e-05
-1.62616e-05
3.62218e-05
-1.02777e-05
2.79196e-05
-1.46732e-05
2.38359e-05
-1.77363e-05
2.46618e-05
-1.96254e-05
3.09013e-05
-2.10001e-05
3.92402e-05
-1.91009e-05
4.69822e-05
-1.49125e-05
5.28967e-05
-9.72885e-06
5.62604e-05
-4.05307e-06
5.75635e-05
1.34164e-06
5.66806e-05
6.44947e-06
5.58642e-05
8.83465e-06
5.60729e-05
9.79528e-06
5.60903e-05
1.26552e-05
5.69602e-05
1.47982e-05
5.97382e-05
1.54158e-05
6.49126e-05
1.67316e-05
7.31877e-05
1.54118e-05
2.23049e-05
9.05646e-05
4.20987e-05
-8.01632e-05
3.08557e-05
-5.03496e-05
-1.83881e-05
1.18913e-06
-5.24996e-05
1.78498e-05
-4.94638e-05
-1.33136e-05
-5.12086e-05
-1.29286e-05
-6.51325e-05
-3.8126e-06
-6.95163e-05
-1.52417e-05
-5.30227e-05
-3.74937e-05
-2.39022e-05
-4.82214e-05
-3.66939e-06
-3.51453e-05
1.39689e-05
-2.73671e-05
2.98618e-05
-1.9946e-05
4.15372e-05
-1.03337e-05
5.1041e-05
-3.05443e-06
5.90666e-05
8.09094e-07
6.21244e-05
6.73748e-06
5.94737e-05
1.53058e-05
5.7427e-05
1.68449e-05
5.89533e-05
1.38895e-05
6.2261e-05
1.3424e-05
6.69939e-05
1.06788e-05
8.94607e-06
8.03528e-05
-1.81223e-05
-6.20409e-05
-2.52276e-05
-4.32443e-05
-3.8245e-05
1.42064e-05
-2.4734e-05
4.33862e-06
-1.74276e-05
-2.06202e-05
-1.9255e-05
-1.11014e-05
-1.92569e-05
-3.81082e-06
-2.30827e-05
-1.1416e-05
-3.76086e-05
-2.29677e-05
-6.10719e-05
-2.47581e-05
-8.10396e-05
-1.51776e-05
-0.000101193
-7.21399e-06
-0.000112936
-8.20226e-06
-0.0001004
-2.28705e-05
-6.54127e-05
-3.80414e-05
1.25167e-06
-6.58553e-05
2.84346e-05
-2.04454e-05
4.34302e-05
3.1018e-07
5.5165e-05
5.11014e-06
6.35686e-05
5.48595e-06
6.66183e-05
1.03743e-05
6.91482e-05
8.14898e-06
4.37019e-06
7.37241e-05
-3.27503e-05
-2.92907e-05
-4.04434e-05
-3.55512e-05
-1.51396e-05
-1.10975e-05
-2.96099e-06
-7.84017e-06
-9.42946e-06
-1.4152e-05
-1.10591e-05
-9.47195e-06
-7.2018e-06
-7.66822e-06
-7.14514e-06
-1.14727e-05
-1.23663e-05
-1.77465e-05
-1.74457e-05
-1.96787e-05
-2.15283e-05
-1.10949e-05
-3.26992e-05
3.9569e-06
-4.88664e-05
7.96489e-06
-6.42895e-05
-7.44744e-06
-6.69141e-05
-3.54169e-05
-7.8976e-05
-5.37934e-05
-7.4795e-05
-2.46265e-05
-2.86414e-05
-4.58434e-05
1.36869e-05
-3.72181e-05
3.35767e-05
-1.44038e-05
4.52656e-05
-1.31468e-06
6.05025e-05
-7.08788e-06
-6.00827e-06
7.08809e-05
-1.39956e-05
-1.52951e-05
-1.61354e-05
-3.34114e-05
-1.13724e-05
-1.58606e-05
-7.81943e-06
-1.13932e-05
-9.91203e-06
-1.20595e-05
-1.02514e-05
-9.13267e-06
-9.9879e-06
-7.93179e-06
-1.14719e-05
-9.98871e-06
-1.45494e-05
-1.4669e-05
-1.65015e-05
-1.77266e-05
-1.39375e-05
-1.36589e-05
-8.85092e-06
-1.12977e-06
-9.24057e-06
8.35446e-06
-1.03888e-05
-6.29929e-06
-6.25145e-06
-3.95542e-05
-9.20524e-06
-5.08396e-05
3.63948e-06
-3.74712e-05
7.18737e-06
-4.93913e-05
4.96005e-06
-3.49908e-05
-2.25397e-05
1.30959e-05
-3.03954e-05
6.54104e-06
-1.13034e-05
-2.61799e-05
-2.47562e-05
7.44445e-06
-7.20565e-06
-8.08943e-06
-1.09179e-05
-2.96991e-05
-9.60554e-06
-1.7173e-05
-7.99569e-06
-1.30031e-05
-8.54115e-06
-1.15141e-05
-8.28649e-06
-9.3874e-06
-8.40393e-06
-7.8144e-06
-9.85858e-06
-8.53408e-06
-1.2765e-05
-1.17626e-05
-1.56111e-05
-1.48805e-05
-1.5806e-05
-1.34641e-05
-1.10431e-05
-5.89283e-06
-1.71394e-06
-9.74728e-07
7.91079e-06
-1.5924e-05
7.47713e-06
-3.91205e-05
5.56032e-06
-4.89227e-05
1.34154e-05
-4.53262e-05
1.61438e-05
-5.21197e-05
3.37859e-05
-5.26328e-05
5.42004e-05
-7.3186e-06
3.78324e-05
2.2909e-05
-1.75795e-05
2.92321e-05
4.50345e-05
-8.73701e-05
-4.99974e-06
-3.08965e-06
-7.58257e-06
-2.71162e-05
-7.16794e-06
-1.75876e-05
-6.62078e-06
-1.35503e-05
-6.40289e-06
-1.1732e-05
-5.93432e-06
-9.85603e-06
-5.74062e-06
-8.00815e-06
-6.62932e-06
-7.64544e-06
-8.74849e-06
-9.64351e-06
-1.08404e-05
-1.27888e-05
-9.8203e-06
-1.44842e-05
-2.48225e-06
-1.3231e-05
9.34292e-06
-1.27999e-05
1.68398e-05
-2.34209e-05
1.4059e-05
-3.63396e-05
1.03794e-05
-4.5243e-05
1.35221e-05
-4.84688e-05
1.69327e-05
-5.55303e-05
2.9445e-05
-6.51451e-05
6.91858e-05
-4.70594e-05
0.000110425
-1.833e-05
0.000116451
2.32059e-05
8.1669e-05
7.98167e-05
-3.14305e-06
5.34347e-08
-5.07634e-06
-2.51829e-05
-5.16716e-06
-1.74968e-05
-4.99492e-06
-1.37226e-05
-4.59553e-06
-1.21315e-05
-3.86011e-06
-1.05915e-05
-2.96705e-06
-8.90126e-06
-2.54551e-06
-8.06707e-06
-3.01991e-06
-9.16924e-06
-3.83639e-06
-1.19724e-05
-3.11087e-06
-1.52099e-05
1.57466e-06
-1.79165e-05
9.39822e-06
-2.06234e-05
1.39858e-05
-2.80084e-05
1.40605e-05
-3.64142e-05
1.2795e-05
-4.39774e-05
1.46955e-05
-5.03692e-05
1.88079e-05
-5.96427e-05
2.87807e-05
-7.51179e-05
5.29267e-05
-7.12054e-05
8.47894e-05
-5.01928e-05
0.000118972
-1.09768e-05
6.03606e-05
0.000140281
-1.58546e-06
1.63893e-06
-3.13677e-06
-2.36316e-05
-3.57129e-06
-1.70623e-05
-3.51569e-06
-1.37782e-05
-3.09412e-06
-1.25531e-05
-2.21648e-06
-1.14692e-05
-8.54367e-07
-1.02634e-05
6.03571e-07
-9.5251e-06
1.66102e-06
-1.02268e-05
2.30211e-06
-1.26136e-05
3.16774e-06
-1.60756e-05
5.27458e-06
-2.00234e-05
8.72091e-06
-2.40697e-05
1.05571e-05
-2.98444e-05
1.00825e-05
-3.59395e-05
8.09713e-06
-4.19919e-05
6.90697e-06
-4.91789e-05
7.31251e-06
-6.00482e-05
9.14453e-06
-7.69499e-05
2.07906e-05
-8.28514e-05
3.93816e-05
-6.87838e-05
6.35237e-05
-3.51189e-05
3.25902e-05
9.12941e-05
-6.29451e-07
2.2684e-06
-1.90417e-06
-2.23568e-05
-2.40874e-06
-1.65577e-05
-2.43513e-06
-1.37518e-05
-2.08668e-06
-1.29015e-05
-1.28644e-06
-1.22694e-05
8.04096e-08
-1.16303e-05
1.8615e-06
-1.13063e-05
3.56691e-06
-1.19323e-05
4.86501e-06
-1.39118e-05
5.80255e-06
-1.70132e-05
6.57994e-06
-2.08007e-05
7.35228e-06
-2.48419e-05
7.09549e-06
-2.95875e-05
5.49405e-06
-3.43379e-05
3.00366e-06
-3.95014e-05
2.29293e-07
-4.64045e-05
-3.5062e-06
-5.63127e-05
-9.93817e-06
-7.05179e-05
-1.39334e-05
-7.88561e-05
-1.26353e-05
-7.00818e-05
-3.42785e-06
-4.43264e-05
9.47211e-06
1.96901e-05
-1.27159e-07
2.39557e-06
-1.1571e-06
-2.13269e-05
-1.653e-06
-1.60618e-05
-1.73562e-06
-1.36692e-05
-1.50785e-06
-1.31292e-05
-9.25741e-07
-1.28514e-05
1.1027e-07
-1.26663e-05
1.56362e-06
-1.27596e-05
3.09557e-06
-1.34643e-05
4.30431e-06
-1.51206e-05
4.95752e-06
-1.76664e-05
4.99874e-06
-2.08419e-05
4.46237e-06
-2.43055e-05
3.08043e-06
-2.82054e-05
1.01702e-06
-3.22744e-05
-1.7969e-06
-3.66874e-05
-5.94654e-06
-4.22548e-05
-1.18853e-05
-5.03739e-05
-2.17726e-05
-6.06306e-05
-3.33856e-05
-6.7243e-05
-4.08915e-05
-6.25759e-05
-4.40752e-05
-4.11427e-05
-3.97656e-06
-3.06265e-05
1.09496e-07
2.28607e-06
-7.29006e-07
-2.04884e-05
-1.20282e-06
-1.55879e-05
-1.3398e-06
-1.35321e-05
-1.2396e-06
-1.32293e-05
-9.04721e-07
-1.31862e-05
-2.91733e-07
-1.32792e-05
5.87352e-07
-1.36387e-05
1.55186e-06
-1.44289e-05
2.25674e-06
-1.58255e-05
2.45615e-06
-1.78658e-05
2.02936e-06
-2.04151e-05
9.93511e-07
-2.32695e-05
-7.34495e-07
-2.64773e-05
-3.04332e-06
-2.99654e-05
-6.02674e-06
-3.37039e-05
-1.03625e-05
-3.7919e-05
-1.73134e-05
-4.3423e-05
-2.80246e-05
-4.99193e-05
-4.09267e-05
-5.43409e-05
-5.22482e-05
-5.12544e-05
-5.65036e-05
-3.68872e-05
-1.22642e-05
-4.8216e-05
1.71081e-07
2.115e-06
-5.20025e-07
-1.97972e-05
-9.71365e-07
-1.51365e-05
-1.16662e-06
-1.33367e-05
-1.19002e-06
-1.32058e-05
-1.07144e-06
-1.33047e-05
-8.17139e-07
-1.35335e-05
-4.51701e-07
-1.40041e-05
-7.51953e-08
-1.48054e-05
1.12881e-07
-1.60136e-05
-1.08068e-07
-1.76448e-05
-8.49104e-07
-1.9674e-05
-2.11676e-06
-2.20018e-05
-3.98834e-06
-2.46056e-05
-6.51132e-06
-2.74424e-05
-9.74604e-06
-3.0469e-05
-1.4066e-05
-3.35989e-05
-2.07386e-05
-3.67503e-05
-3.09963e-05
-3.96615e-05
-4.40242e-05
-4.13129e-05
-5.62629e-05
-3.90155e-05
-6.37663e-05
-2.93838e-05
-1.37654e-05
-6.22651e-05
1.57747e-07
1.95728e-06
-4.47083e-07
-1.91923e-05
-8.93038e-07
-1.46904e-05
-1.14623e-06
-1.30834e-05
-1.28238e-06
-1.30695e-05
-1.33723e-06
-1.32498e-05
-1.33682e-06
-1.35338e-05
-1.32456e-06
-1.40164e-05
-1.37151e-06
-1.47584e-05
-1.594e-06
-1.57911e-05
-2.11358e-06
-1.71252e-05
-3.04342e-06
-1.87441e-05
-4.44229e-06
-2.06028e-05
-6.40871e-06
-2.26391e-05
-9.06437e-06
-2.47866e-05
-1.25628e-05
-2.69705e-05
-1.70673e-05
-2.90942e-05
-2.29198e-05
-3.08977e-05
-3.06613e-05
-3.19199e-05
-4.05083e-05
-3.14658e-05
-5.12154e-05
-2.83084e-05
-5.94374e-05
-2.11618e-05
-1.1087e-05
-6.21158e-05
1.08546e-07
1.84879e-06
-4.56542e-07
-1.86271e-05
-9.11641e-07
-1.42352e-05
-1.22051e-06
-1.27744e-05
-1.45632e-06
-1.28336e-05
-1.65171e-06
-1.30543e-05
-1.83377e-06
-1.33517e-05
-2.04721e-06
-1.38029e-05
-2.35376e-06
-1.44518e-05
-2.82825e-06
-1.53166e-05
-3.55316e-06
-1.64002e-05
-4.61762e-06
-1.76796e-05
-6.09725e-06
-1.91231e-05
-8.07097e-06
-2.06652e-05
-1.06268e-05
-2.22306e-05
-1.38855e-05
-2.37117e-05
-1.79982e-05
-2.49814e-05
-2.3075e-05
-2.58209e-05
-2.91235e-05
-2.58713e-05
-3.59896e-05
-2.45997e-05
-4.2948e-05
-2.13499e-05
-4.82933e-05
-1.58165e-05
-8.89551e-06
-5.04848e-05
4.42393e-08
1.80461e-06
-5.12081e-07
-1.80707e-05
-9.86298e-07
-1.37609e-05
-1.34724e-06
-1.24134e-05
-1.66949e-06
-1.25113e-05
-1.98127e-06
-1.27426e-05
-2.30437e-06
-1.30287e-05
-2.67688e-06
-1.34304e-05
-3.15081e-06
-1.39779e-05
-3.78534e-06
-1.4682e-05
-4.64743e-06
-1.55381e-05
-5.80295e-06
-1.6524e-05
-7.31851e-06
-1.76074e-05
-9.25751e-06
-1.87261e-05
-1.16781e-05
-1.98099e-05
-1.46365e-05
-2.07531e-05
-1.8202e-05
-2.14158e-05
-2.24294e-05
-2.15934e-05
-2.72643e-05
-2.10364e-05
-3.24063e-05
-1.94576e-05
-3.71862e-05
-1.65701e-05
-4.06737e-05
-1.23291e-05
-7.2923e-06
-4.22769e-05
-1.8366e-08
1.82303e-06
-5.87715e-07
-1.75013e-05
-1.08782e-06
-1.32608e-05
-1.49599e-06
-1.20052e-05
-1.89035e-06
-1.2117e-05
-2.29643e-06
-1.23365e-05
-2.73148e-06
-1.25936e-05
-3.2251e-06
-1.29368e-05
-3.81775e-06
-1.33853e-05
-4.55995e-06
-1.39398e-05
-5.50402e-06
-1.4594e-05
-6.70155e-06
-1.53264e-05
-8.20552e-06
-1.61034e-05
-1.00589e-05
-1.68727e-05
-1.23039e-05
-1.75648e-05
-1.49682e-05
-1.80888e-05
-1.80605e-05
-1.83235e-05
-2.15421e-05
-1.81117e-05
-2.53084e-05
-1.72701e-05
-2.91382e-05
-1.56278e-05
-3.26115e-05
-1.30968e-05
-3.51703e-05
-9.77037e-06
-6.00018e-06
-3.64624e-05
-7.20939e-08
1.89515e-06
-6.66735e-07
-1.69066e-05
-1.19461e-06
-1.27329e-05
-1.64493e-06
-1.1555e-05
-2.09746e-06
-1.16645e-05
-2.57587e-06
-1.18582e-05
-3.09457e-06
-1.2075e-05
-3.67706e-06
-1.23544e-05
-4.35603e-06
-1.27063e-05
-5.16631e-06
-1.31295e-05
-6.15202e-06
-1.36083e-05
-7.34892e-06
-1.41295e-05
-8.79768e-06
-1.46546e-05
-1.05271e-05
-1.51433e-05
-1.25548e-05
-1.55371e-05
-1.48876e-05
-1.5756e-05
-1.75092e-05
-1.57019e-05
-2.03667e-05
-1.52541e-05
-2.33489e-05
-1.42879e-05
-2.62622e-05
-1.27144e-05
-2.8823e-05
-1.0536e-05
-3.07162e-05
-7.87715e-06
-4.98331e-06
-3.17331e-05
-1.16492e-07
2.01164e-06
-7.41136e-07
-1.6282e-05
-1.29561e-06
-1.21785e-05
-1.78014e-06
-1.10705e-05
-2.27764e-06
-1.11671e-05
-2.80899e-06
-1.13268e-05
-3.386e-06
-1.1498e-05
-4.02755e-06
-1.17129e-05
-4.75817e-06
-1.19757e-05
-5.60708e-06
-1.22807e-05
-6.59995e-06
-1.26155e-05
-7.77041e-06
-1.2959e-05
-9.14169e-06
-1.32834e-05
-1.07305e-05
-1.35545e-05
-1.25475e-05
-1.37202e-05
-1.4583e-05
-1.37204e-05
-1.68073e-05
-1.34776e-05
-1.91589e-05
-1.29024e-05
-2.15346e-05
-1.19121e-05
-2.37841e-05
-1.04649e-05
-2.57153e-05
-8.6047e-06
-2.71315e-05
-6.46095e-06
-4.22363e-06
-2.78911e-05
-1.49634e-07
2.16126e-06
-8.0525e-07
-1.56264e-05
-1.38119e-06
-1.16026e-05
-1.89262e-06
-1.05591e-05
-2.42296e-06
-1.06368e-05
-2.99081e-06
-1.0759e-05
-3.60587e-06
-1.0883e-05
-4.28318e-06
-1.10356e-05
-5.03991e-06
-1.1219e-05
-5.89822e-06
-1.14224e-05
-6.87946e-06
-1.16343e-05
-8.0041e-06
-1.18344e-05
-9.28809e-06
-1.19994e-05
-1.07414e-05
-1.21012e-05
-1.23606e-05
-1.2101e-05
-1.41322e-05
-1.19487e-05
-1.6021e-05
-1.15888e-05
-1.79684e-05
-1.09549e-05
-1.98851e-05
-9.99538e-06
-2.16537e-05
-8.69617e-06
-2.31372e-05
-7.12119e-06
-2.42006e-05
-5.3975e-06
-3.68968e-06
-2.47345e-05
-1.72104e-07
2.33336e-06
-8.55859e-07
-1.49426e-05
-1.44802e-06
-1.10104e-05
-1.97753e-06
-1.00296e-05
-2.52924e-06
-1.00851e-05
-3.1193e-06
-1.0169e-05
-3.75475e-06
-1.02476e-05
-4.44725e-06
-1.03431e-05
-5.21195e-06
-1.04544e-05
-6.06326e-06
-1.05712e-05
-7.01679e-06
-1.06808e-05
-8.08539e-06
-1.07659e-05
-9.27893e-06
-1.08059e-05
-1.06007e-05
-1.07794e-05
-1.20452e-05
-1.06565e-05
-1.35929e-05
-1.0401e-05
-1.52095e-05
-9.97212e-06
-1.68409e-05
-9.3234e-06
-1.8414e-05
-8.42217e-06
-1.9837e-05
-7.27299e-06
-2.10072e-05
-5.95098e-06
-2.18213e-05
-4.58327e-06
-3.32298e-06
-2.21879e-05
-1.85805e-07
2.51918e-06
-8.91033e-07
-1.42374e-05
-1.49091e-06
-1.04105e-05
-2.03084e-06
-9.48973e-06
-2.59409e-06
-9.52184e-06
-3.19454e-06
-9.56855e-06
-3.83734e-06
-9.60481e-06
-4.53196e-06
-9.64859e-06
-5.28933e-06
-9.69712e-06
-6.12019e-06
-9.7404e-06
-7.0351e-06
-9.76596e-06
-8.04315e-06
-9.75786e-06
-9.14879e-06
-9.7003e-06
-1.03521e-05
-9.5761e-06
-1.16444e-05
-9.36416e-06
-1.30063e-05
-9.03905e-06
-1.44048e-05
-8.57349e-06
-1.57949e-05
-7.93317e-06
-1.71162e-05
-7.10077e-06
-1.82967e-05
-6.09237e-06
-1.92577e-05
-4.98981e-06
-1.99154e-05
-3.92554e-06
-3.04684e-06
-2.01914e-05
-1.92919e-07
2.71212e-06
-9.06584e-07
-1.35238e-05
-1.50607e-06
-9.81111e-06
-2.04866e-06
-8.94718e-06
-2.61454e-06
-8.95601e-06
-3.21519e-06
-8.96795e-06
-3.85453e-06
-8.96554e-06
-4.53997e-06
-8.96321e-06
-5.27985e-06
-8.95731e-06
-6.08232e-06
-8.93798e-06
-6.95459e-06
-8.89371e-06
-7.89935e-06
-8.81311e-06
-8.922e-06
-8.67765e-06
-1.00198e-05
-8.47828e-06
-1.11829e-05
-8.20097e-06
-1.23934e-05
-7.82841e-06
-1.3624e-05
-7.34281e-06
-1.48326e-05
-6.72447e-06
-1.59746e-05
-5.95863e-06
-1.69953e-05
-5.07152e-06
-1.78334e-05
-4.15162e-06
-1.84202e-05
-3.33864e-06
-2.78086e-06
-1.86861e-05
-1.94392e-07
2.9065e-06
-8.9938e-07
-1.28189e-05
-1.48786e-06
-9.22272e-06
-2.02653e-06
-8.40859e-06
-2.58738e-06
-8.39521e-06
-3.17997e-06
-8.37544e-06
-3.80732e-06
-8.33826e-06
-4.47565e-06
-8.29495e-06
-5.19115e-06
-8.24187e-06
-5.95922e-06
-8.16995e-06
-6.78485e-06
-8.06809e-06
-7.67223e-06
-7.92573e-06
-8.61786e-06
-7.73199e-06
-9.62267e-06
-7.47343e-06
-1.06779e-05
-7.14566e-06
-1.1766e-05
-6.7402e-06
-1.28654e-05
-6.24329e-06
-1.39461e-05
-5.64362e-06
-1.49697e-05
-4.93495e-06
-1.58938e-05
-4.14735e-06
-1.66766e-05
-3.36869e-06
-1.72646e-05
-2.75057e-06
-2.43941e-06
-1.76059e-05
-1.87666e-07
3.09411e-06
-8.64634e-07
-1.21421e-05
-1.43353e-06
-8.65395e-06
-1.96122e-06
-7.88098e-06
-2.50973e-06
-7.84676e-06
-3.08734e-06
-7.79791e-06
-3.69684e-06
-7.72885e-06
-4.34182e-06
-7.65006e-06
-5.02787e-06
-7.55589e-06
-5.75957e-06
-7.43828e-06
-6.53962e-06
-7.28806e-06
-7.36905e-06
-7.09629e-06
-8.24807e-06
-6.85294e-06
-9.17271e-06
-6.54875e-06
-1.01367e-05
-6.18167e-06
-1.11292e-05
-5.74759e-06
-1.21318e-05
-5.2406e-06
-1.31211e-05
-4.6542e-06
-1.40694e-05
-3.98651e-06
-1.49514e-05
-3.2652e-06
-1.57384e-05
-2.58156e-06
-1.63965e-05
-2.09243e-06
-1.9413e-06
-1.68945e-05
-1.67077e-07
3.26109e-06
-8.0103e-07
-1.15083e-05
-1.34233e-06
-8.11276e-06
-1.85282e-06
-7.37058e-06
-2.38138e-06
-7.31828e-06
-2.93641e-06
-7.243e-06
-3.52024e-06
-7.14514e-06
-4.13751e-06
-7.0329e-06
-4.79173e-06
-6.90175e-06
-5.48512e-06
-6.74493e-06
-6.22039e-06
-6.55279e-06
-6.99778e-06
-6.31889e-06
-7.81657e-06
-6.03413e-06
-8.67276e-06
-5.69256e-06
-9.56347e-06
-5.29095e-06
-1.04786e-05
-4.83243e-06
-1.14087e-05
-4.31043e-06
-1.23372e-05
-3.72547e-06
-1.32475e-05
-3.0761e-06
-1.41262e-05
-2.38634e-06
-1.49591e-05
-1.7486e-06
-1.57348e-05
-1.31666e-06
-1.23029e-06
-1.64458e-05
-1.26661e-07
3.38766e-06
-7.1095e-07
-1.09241e-05
-1.22044e-06
-7.60337e-06
-1.70688e-06
-6.8842e-06
-2.20798e-06
-6.81727e-06
-2.73295e-06
-6.71815e-06
-3.28451e-06
-6.5937e-06
-3.86661e-06
-6.45091e-06
-4.48247e-06
-6.28595e-06
-5.1351e-06
-6.09232e-06
-5.82378e-06
-5.86411e-06
-6.55025e-06
-5.59243e-06
-7.31293e-06
-5.27146e-06
-8.10889e-06
-4.89661e-06
-8.93531e-06
-4.46453e-06
-9.7898e-06
-3.97788e-06
-1.06653e-05
-3.43477e-06
-1.15541e-05
-2.83657e-06
-1.24489e-05
-2.18116e-06
-1.33473e-05
-1.48783e-06
-1.42557e-05
-8.40137e-07
-1.5178e-05
-3.94267e-07
-2.6375e-07
-1.61446e-05
-6.77674e-08
3.45536e-06
-6.03172e-07
-1.03888e-05
-1.07731e-06
-7.12931e-06
-1.53299e-06
-6.42859e-06
-1.99941e-06
-6.35096e-06
-2.48643e-06
-6.23125e-06
-2.99723e-06
-6.083e-06
-3.5355e-06
-5.91272e-06
-4.10475e-06
-5.71675e-06
-4.7076e-06
-5.48949e-06
-5.34407e-06
-5.22765e-06
-6.01503e-06
-4.92148e-06
-6.71955e-06
-4.56696e-06
-7.45641e-06
-4.15977e-06
-8.22386e-06
-3.69706e-06
-9.02203e-06
-3.17964e-06
-9.84769e-06
-2.60902e-06
-1.07024e-05
-1.98176e-06
-1.15867e-05
-1.29678e-06
-1.25082e-05
-5.66198e-07
-1.34856e-05
1.37233e-07
-1.45545e-05
6.74664e-07
9.57552e-07
-1.57757e-05
1.91684e-08
3.43612e-06
-4.84915e-07
-9.88484e-06
-9.24582e-07
-6.68972e-06
-1.34463e-06
-6.00861e-06
-1.76959e-06
-5.9261e-06
-2.21213e-06
-5.78878e-06
-2.67343e-06
-5.62177e-06
-3.15843e-06
-5.42778e-06
-3.67069e-06
-5.20454e-06
-4.21146e-06
-4.94876e-06
-4.78435e-06
-4.65479e-06
-5.38879e-06
-4.31706e-06
-6.02511e-06
-3.93068e-06
-6.69318e-06
-3.49174e-06
-7.39152e-06
-2.99871e-06
-8.12237e-06
-2.44875e-06
-8.88901e-06
-1.84234e-06
-9.69518e-06
-1.17552e-06
-1.05491e-05
-4.42767e-07
-1.14619e-05
3.46669e-07
-1.24699e-05
1.14526e-06
-1.3627e-05
1.83182e-06
2.34107e-06
-1.50104e-05
1.23527e-07
3.31254e-06
-3.67212e-07
-9.39419e-06
-7.74709e-07
-6.28228e-06
-1.1553e-06
-5.62807e-06
-1.53494e-06
-5.54651e-06
-1.92807e-06
-5.3957e-06
-2.33534e-06
-5.21455e-06
-2.76024e-06
-5.00293e-06
-3.20599e-06
-4.75885e-06
-3.67573e-06
-4.47906e-06
-4.17141e-06
-4.15914e-06
-4.69418e-06
-3.7943e-06
-5.245e-06
-3.37989e-06
-5.82435e-06
-2.91243e-06
-6.43365e-06
-2.38944e-06
-7.07384e-06
-1.80857e-06
-7.75051e-06
-1.16566e-06
-8.47027e-06
-4.55708e-07
-9.24011e-06
3.27168e-07
-1.00842e-05
1.1909e-06
-1.10358e-05
2.0969e-06
-1.21555e-05
2.95155e-06
3.73978e-06
-1.35542e-05
2.41118e-07
3.07136e-06
-2.57833e-07
-8.8953e-06
-6.39398e-07
-5.90074e-06
-9.81007e-07
-5.28647e-06
-1.31688e-06
-5.21065e-06
-1.66257e-06
-5.05003e-06
-2.01595e-06
-4.86121e-06
-2.3802e-06
-4.63874e-06
-2.75782e-06
-4.3813e-06
-3.15111e-06
-4.08581e-06
-3.56193e-06
-3.74833e-06
-3.99187e-06
-3.36437e-06
-4.4422e-06
-2.92959e-06
-4.91392e-06
-2.44073e-06
-5.40827e-06
-1.8951e-06
-5.92716e-06
-1.28968e-06
-6.47448e-06
-6.18333e-07
-7.05263e-06
1.22496e-07
-7.677e-06
9.51621e-07
-8.36127e-06
1.87524e-06
-9.12982e-06
2.8655e-06
-1.00621e-05
3.88389e-06
4.91167e-06
-1.1234e-05
3.67526e-07
2.70379e-06
-1.6465e-07
-8.36313e-06
-5.30845e-07
-5.53454e-06
-8.37381e-07
-4.97992e-06
-1.13747e-06
-4.91056e-06
-1.44338e-06
-4.74414e-06
-1.75095e-06
-4.55368e-06
-2.06233e-06
-4.32744e-06
-2.37871e-06
-4.065e-06
-2.70131e-06
-3.76326e-06
-3.03127e-06
-3.41838e-06
-3.36963e-06
-3.02602e-06
-3.7171e-06
-2.58211e-06
-4.07393e-06
-2.08386e-06
-4.43988e-06
-1.52912e-06
-4.81593e-06
-9.13621e-07
-5.20216e-06
-2.32105e-07
-5.59567e-06
5.16022e-07
-6.00754e-06
1.36353e-06
-6.43788e-06
2.30564e-06
-6.91424e-06
3.34191e-06
-7.47352e-06
4.44324e-06
5.61244e-06
-8.17424e-06
4.82234e-07
2.22155e-06
-9.74768e-08
-7.7834e-06
-4.55603e-07
-5.17638e-06
-7.3435e-07
-4.70116e-06
-1.01159e-06
-4.63331e-06
-1.28964e-06
-4.4661e-06
-1.56445e-06
-4.27891e-06
-1.83708e-06
-4.0549e-06
-2.10745e-06
-3.79471e-06
-2.3754e-06
-3.49535e-06
-2.64098e-06
-3.1528e-06
-2.90407e-06
-2.7629e-06
-3.16393e-06
-2.32221e-06
-3.41857e-06
-1.82917e-06
-3.66545e-06
-1.28221e-06
-3.90138e-06
-6.7772e-07
-4.12324e-06
-1.02782e-08
-4.32337e-06
7.16141e-07
-4.49743e-06
1.53762e-06
-4.64465e-06
2.45289e-06
-4.75723e-06
3.45454e-06
-4.84669e-06
4.53278e-06
5.69308e-06
-4.92734e-06
5.93054e-07
1.62851e-06
-4.94897e-08
-7.14083e-06
-4.08619e-07
-4.81722e-06
-6.70287e-07
-4.43948e-06
-9.37044e-07
-4.36655e-06
-1.19869e-06
-4.20446e-06
-1.45453e-06
-4.02311e-06
-1.7037e-06
-3.80579e-06
-1.94544e-06
-3.55301e-06
-2.17919e-06
-3.2616e-06
-2.40381e-06
-2.92815e-06
-2.618e-06
-2.54869e-06
-2.81932e-06
-2.12088e-06
-3.00322e-06
-1.64523e-06
-3.16325e-06
-1.12216e-06
-3.29077e-06
-5.50193e-07
-3.37842e-06
7.73815e-08
-3.42429e-06
7.62052e-07
-3.40125e-06
1.5146e-06
-3.28198e-06
2.33363e-06
-3.04888e-06
3.22146e-06
-2.68288e-06
4.16682e-06
5.16489e-06
-2.1547e-06
6.97477e-07
9.31052e-07
-1.22902e-08
-6.43105e-06
-3.77982e-07
-4.45152e-06
-6.2958e-07
-4.18789e-06
-8.9293e-07
-4.10322e-06
-1.14407e-06
-3.95332e-06
-1.38843e-06
-3.77876e-06
-1.62459e-06
-3.56965e-06
-1.85161e-06
-3.326e-06
-2.06811e-06
-3.04509e-06
-2.27275e-06
-2.72352e-06
-2.46359e-06
-2.35786e-06
-2.63677e-06
-1.94766e-06
-2.78555e-06
-1.49635e-06
-2.90173e-06
-1.00588e-06
-2.97433e-06
-4.77552e-07
-2.99066e-06
9.37352e-08
-2.93623e-06
7.07651e-07
-2.78262e-06