/*--------------------------------*- C++ -*----------------------------------*\
| =========                 |                                                 |
| \\      /  F ield         | OpenFOAM: The Open Source CFD Toolbox           |
|  \\    /   O peration     | Version:  2206                                  |
|   \\  /    A nd           | Website:  www.openfoam.com                      |
|    \\/     M anipulation  |                                                 |
\*---------------------------------------------------------------------------*/
FoamFile
{
    version     2.0;
    format      ascii;
    arch        "LSB;label=32;scalar=64";
    class       volVectorField;
    location    "0.5";
    object      U;
}
// * * * * * * * * * * * * * * * * * * * * * * * * * * * * * * * * * * * * * //

dimensions      [0 1 -1 0 0 0 0];

internalField   nonuniform List<vector> 
2268
(
(-0.0315859 0.0104434 0)
(-0.061517 0.0047158 0)
(-0.0561289 -0.00535087 0)
(-0.0165229 -0.0114287 0)
(0.0410594 -0.0147889 0)
(0.105092 -0.0149969 0)
(0.165081 -0.0127587 0)
(0.213288 -0.00940886 0)
(0.246747 -0.00609055 0)
(0.266711 -0.00331639 0)
(0.276073 -0.00112933 0)
(0.277542 0.000904749 0)
(0.27134 0.00295396 0)
(0.257963 0.00547412 0)
(0.235814 0.00912863 0)
(0.201404 0.0144116 0)
(0.148196 0.0210121 0)
(0.0732792 0.0254346 0)
(-0.0240745 0.0136006 0)
(-0.0624555 0.00926253 0)
(-0.180793 0.0262945 0)
(-0.247242 -0.00289659 0)
(-0.0894003 -0.0565985 0)
(-0.0410677 0.0315839 0)
(-0.0589605 0.0106227 0)
(-0.0512165 -0.0169341 0)
(-0.0108265 -0.0347719 0)
(0.0461651 -0.0445935 0)
(0.109486 -0.0451494 0)
(0.168574 -0.0384336 0)
(0.2157 -0.0284413 0)
(0.248229 -0.018597 0)
(0.267767 -0.01043 0)
(0.277467 -0.00407798 0)
(0.280026 0.00102456 0)
(0.278772 0.00553407 0)
(0.274875 0.0102057 0)
(0.269295 0.0163463 0)
(0.261956 0.0256344 0)
(0.247715 0.0392785 0)
(0.216133 0.056474 0)
(0.133039 0.0597875 0)
(0.0378813 0.0584542 0)
(-0.142549 0.0555054 0)
(-0.157437 -0.0164894 0)
(-0.0363798 -0.13204 0)
(-0.0366938 0.0520948 0)
(-0.0490587 0.0142586 0)
(-0.0408176 -0.0288715 0)
(-0.00226438 -0.0573292 0)
(0.0517642 -0.073414 0)
(0.113153 -0.0744218 0)
(0.170518 -0.0631275 0)
(0.215462 -0.0464388 0)
(0.245755 -0.0302323 0)
(0.263735 -0.0169907 0)
(0.272812 -0.0068641 0)
(0.275614 0.000741466 0)
(0.273711 0.0067586 0)
(0.268146 0.0122 0)
(0.259931 0.0184617 0)
(0.250905 0.0278439 0)
(0.243698 0.0433704 0)
(0.243307 0.0688956 0)
(0.222956 0.0935194 0)
(0.170938 0.115032 0)
(0.038478 0.107755 0)
(-0.045162 -0.0259736 0)
(0.0261391 -0.161883 0)
(-0.029411 0.0688599 0)
(-0.0353431 0.016608 0)
(-0.0256388 -0.0402908 0)
(0.00794425 -0.077487 0)
(0.0569177 -0.100434 0)
(0.115469 -0.102734 0)
(0.170895 -0.0868477 0)
(0.213507 -0.0632349 0)
(0.241348 -0.04085 0)
(0.257655 -0.0230687 0)
(0.2663 -0.00972681 0)
(0.269785 0.000379309 0)
(0.269374 0.00839323 0)
(0.265709 0.0155909 0)
(0.259129 0.0232304 0)
(0.250214 0.0328631 0)
(0.24023 0.0465002 0)
(0.2367 0.0692546 0)
(0.242585 0.101551 0)
(0.24747 0.141708 0)
(0.200039 0.152288 0)
(0.132143 0.0085215 0)
(0.0919931 -0.129233 0)
(-0.0209209 0.0798266 0)
(-0.0155182 0.0158968 0)
(-0.00435858 -0.0500077 0)
(0.0246368 -0.09509 0)
(0.0682233 -0.125568 0)
(0.121296 -0.129949 0)
(0.171878 -0.109557 0)
(0.210344 -0.0788659 0)
(0.235086 -0.0503797 0)
(0.249865 -0.0284782 0)
(0.25855 -0.0125249 0)
(0.263241 -0.000652361 0)
(0.264786 0.00888793 0)
(0.263559 0.0174808 0)
(0.25978 0.0264355 0)
(0.253789 0.0370116 0)
(0.246241 0.0503571 0)
(0.239564 0.0690624 0)
(0.241598 0.0958911 0)
(0.264976 0.137554 0)
(0.28069 0.162346 0)
(0.232586 0.0589974 0)
(0.143051 -0.0667995 0)
(-0.0109679 0.0843902 0)
(0.0125023 0.0117692 0)
(0.0287649 -0.060105 0)
(0.0609528 -0.111843 0)
(0.101077 -0.148146 0)
(0.142444 -0.153727 0)
(0.180517 -0.129077 0)
(0.209725 -0.0925078 0)
(0.228842 -0.0592515 0)
(0.241338 -0.0340526 0)
(0.250308 -0.0158311 0)
(0.25684 -0.00229745 0)
(0.260923 0.00844843 0)
(0.262394 0.0181268 0)
(0.261258 0.0281376 0)
(0.257885 0.0395428 0)
(0.253373 0.0532583 0)
(0.249181 0.070581 0)
(0.246891 0.0910979 0)
(0.259684 0.122429 0)
(0.295494 0.152912 0)
(0.269276 0.0994245 0)
(0.169632 0.0264024 0)
(0.00193247 0.0780909 0)
(0.0469518 -0.00277512 0)
(0.0821124 -0.0746866 0)
(0.130336 -0.127435 0)
(0.166472 -0.164578 0)
(0.185809 -0.168904 0)
(0.201664 -0.140666 0)
(0.216357 -0.100507 0)
(0.22735 -0.0654129 0)
(0.236031 -0.0395566 0)
(0.244137 -0.0207399 0)
(0.251708 -0.00590628 0)
(0.258044 0.0068893 0)
(0.262395 0.0178127 0)
(0.264094 0.0287378 0)
(0.263137 0.0404568 0)
(0.260731 0.053971 0)
(0.258852 0.0709563 0)
(0.257919 0.0898415 0)
(0.259358 0.112378 0)
(0.285688 0.143726 0)
(0.276477 0.132589 0)
(0.199033 0.119728 0)
(0.0160373 0.0612046 0)
(0.0838044 -0.0228755 0)
(0.158783 -0.0942866 0)
(0.22979 -0.144671 0)
(0.251953 -0.173323 0)
(0.238222 -0.172362 0)
(0.227475 -0.142918 0)
(0.228287 -0.101716 0)
(0.233155 -0.0659451 0)
(0.239412 -0.0406081 0)
(0.246544 -0.0232674 0)
(0.2537 -0.010024 0)
(0.2595 0.00195123 0)
(0.264021 0.0150856 0)
(0.26716 0.029128 0)
(0.268333 0.043225 0)
(0.268448 0.0570187 0)
(0.268561 0.0724808 0)
(0.270009 0.0899334 0)
(0.269888 0.107729 0)
(0.279808 0.138306 0)
(0.281703 0.164211 0)
(0.195372 0.251461 0)
(-0.0204351 -0.00664702 0)
(-0.00408257 -0.0167186 0)
(0.0626949 -0.0245466 0)
(0.0949853 -0.00387167 0)
(0.0545217 0.0247157 0)
(-0.0800716 0.0577903 0)
(-0.249984 0.0212443 0)
(-0.58231 0.103798 0)
(-1.83677 0.212595 0)
(-3.40444 -0.0160998 0)
(-3.88976 -0.200846 0)
(-3.78324 -0.311014 0)
(-3.27311 -0.310493 0)
(-2.87536 -0.275836 0)
(-2.49366 -0.232373 0)
(-2.05787 -0.17377 0)
(-1.53631 -0.148233 0)
(-0.872531 -0.218765 0)
(-0.205579 -0.154993 0)
(-0.059565 0.021952 0)
(-0.0974747 -0.0200719 0)
(-0.0392918 -0.0559408 0)
(-0.00785447 -0.000265466 0)
(-0.0316923 0.0756897 0)
(-0.146363 0.172918 0)
(-0.611075 0.393755 0)
(-2.62342 0.858749 0)
(-4.22919 0.964795 0)
(-5.69222 0.716213 0)
(-5.86118 0.159735 0)
(-4.24472 -0.126014 0)
(-3.91043 -0.239299 0)
(-3.7053 -0.232617 0)
(-3.40709 -0.323283 0)
(-2.81529 -0.40487 0)
(-1.97055 -0.54053 0)
(-0.970274 -0.686585 0)
(-0.163207 -0.39807 0)
(-0.0906135 0.0876445 0)
(-0.160222 -0.0160356 0)
(-0.0771151 -0.101171 0)
(0.0213239 -0.0274814 0)
(0.0952349 0.100653 0)
(-0.0337232 0.424306 0)
(-1.12801 1.14612 0)
(-3.11118 1.67456 0)
(-4.73538 1.84169 0)
(-5.4773 1.089 0)
(-4.7972 -0.439696 0)
(-4.42503 -0.813392 0)
(-3.99142 -0.472628 0)
(-3.75369 -0.38312 0)
(-4.06096 -0.545758 0)
(-3.95713 -0.796131 0)
(-2.75138 -1.07225 0)
(-1.15139 -1.39071 0)
(-0.111735 -0.739322 0)
(-0.126575 0.143752 0)
(-0.229295 -0.00530788 0)
(-0.0908686 -0.190792 0)
(0.139964 -0.120984 0)
(0.264746 0.120247 0)
(-0.0563799 0.868408 0)
(-1.72699 1.96456 0)
(-3.38785 2.43188 0)
(-4.47497 2.41146 0)
(-4.73765 0.956403 0)
(-4.05622 -0.37888 0)
(-3.75803 -1.00383 0)
(-2.79942 -0.816041 0)
(-2.11465 -0.369671 0)
(-2.36663 -0.367957 0)
(-2.90545 -0.811218 0)
(-2.23872 -1.50632 0)
(-1.06196 -2.1262 0)
(-0.0385159 -1.15676 0)
(-0.165815 0.327306 0)
(-0.342124 -0.0118722 0)
(-0.077405 -0.420144 0)
(0.285783 -0.277331 0)
(0.203808 0.217105 0)
(-0.256092 1.56952 0)
(-1.96555 2.65721 0)
(-3.41399 3.03646 0)
(-3.92952 2.63353 0)
(-3.66696 0.907752 0)
(-3.57141 -0.601877 0)
(-3.10062 -1.45694 0)
(-2.24314 -1.42658 0)
(-1.1578 -0.824124 0)
(-0.471452 -0.322426 0)
(-1.06961 -0.524392 0)
(-1.16421 -1.69748 0)
(-0.710113 -2.57564 0)
(0.0799493 -1.49046 0)
(-0.262212 0.279317 0)
(-0.236058 0.124817 0)
(0.461077 -0.635232 0)
(0.320034 -0.325939 0)
(-0.193392 0.520487 0)
(-0.574947 2.19793 0)
(-1.95605 3.2329 0)
(-3.14755 3.46496 0)
(-3.13392 2.56242 0)
(-2.65054 0.907221 0)
(-2.73531 -0.669489 0)
(-2.19914 -1.82307 0)
(-1.66361 -1.96271 0)
(-0.767361 -1.4121 0)
(0.089379 -0.745354 0)
(0.72955 -0.200856 0)
(-0.156802 -1.21379 0)
(-0.429095 -2.73942 0)
(0.17316 -1.67917 0)
(-0.290373 0.624674 0)
(1.31546 -0.390392 0)
(1.46774 -0.498583 0)
(0.138731 0.202387 0)
(-1.18179 1.02452 0)
(-1.4755 2.49156 0)
(-2.00943 3.66494 0)
(-2.614 3.68553 0)
(-1.93146 2.38833 0)
(-1.45789 0.889342 0)
(-1.46211 -0.711327 0)
(-1.04847 -2.10726 0)
(-0.81604 -2.34686 0)
(-0.293199 -1.83194 0)
(0.337986 -1.11056 0)
(0.707112 -0.669008 0)
(1.14636 -0.399543 0)
(-0.282968 -2.64451 0)
(0.200093 -1.80209 0)
(0.866304 -0.376527 0)
(1.47707 -0.609212 0)
(1.47633 -0.44074 0)
(-0.3771 0.861563 0)
(-1.7865 1.47232 0)
(-1.91694 2.58866 0)
(-1.85286 3.67796 0)
(-1.74278 3.44164 0)
(-0.301217 2.02506 0)
(-0.0578407 0.762774 0)
(0.0802444 -0.652782 0)
(0.263797 -2.18787 0)
(0.248743 -2.5324 0)
(0.311368 -2.04435 0)
(0.570295 -1.31677 0)
(0.691447 -0.885962 0)
(1.72152 -0.782413 0)
(-0.0971892 -2.18466 0)
(0.196075 -1.85159 0)
(0.0334951 0.00529612 0)
(0.155067 -0.0839775 0)
(0.281277 -0.158271 0)
(0.350257 -0.180066 0)
(0.324963 -0.170574 0)
(0.265662 -0.157075 0)
(0.230534 -0.136743 0)
(0.224009 -0.104642 0)
(0.230947 -0.0713247 0)
(0.24452 -0.0440037 0)
(0.259253 -0.0227862 0)
(0.271508 -0.00601731 0)
(0.279808 0.00653932 0)
(0.283175 0.0149422 0)
(0.282249 0.0226303 0)
(0.279498 0.0321254 0)
(0.278261 0.0459773 0)
(0.27985 0.0655719 0)
(0.283316 0.0873129 0)
(0.291571 0.10652 0)
(0.300916 0.133387 0)
(0.349249 0.158386 0)
(0.382621 0.299186 0)
(0.0602668 -0.103911 0)
(0.22893 -0.254645 0)
(0.370008 -0.283355 0)
(0.331599 -0.187226 0)
(0.232417 -0.119587 0)
(0.163212 -0.108717 0)
(0.130209 -0.115531 0)
(0.123057 -0.114759 0)
(0.143883 -0.102674 0)
(0.187755 -0.085049 0)
(0.232243 -0.0653564 0)
(0.270535 -0.0430248 0)
(0.297338 -0.0172004 0)
(0.308776 0.0114115 0)
(0.308343 0.0399284 0)
(0.302467 0.0588891 0)
(0.300201 0.0655194 0)
(0.301129 0.0736537 0)
(0.302591 0.080016 0)
(0.312334 0.0868504 0)
(0.330066 0.103311 0)
(0.364757 0.105692 0)
(0.431594 0.169637 0)
(0.102647 -0.294514 0)
(0.213659 -0.426736 0)
(0.202081 -0.262233 0)
(-0.317747 0.0470568 0)
(-0.276653 0.0107031 0)
(-0.254508 -0.0405434 0)
(-0.309328 -0.0468307 0)
(-0.389761 -0.0899733 0)
(-0.375344 -0.150928 0)
(-0.181039 -0.133171 0)
(-0.0682953 -0.101959 0)
(0.02905 -0.0685714 0)
(0.120099 -0.0329291 0)
(0.197099 -0.0011681 0)
(0.249006 0.0202002 0)
(0.301911 0.0280425 0)
(0.336233 0.036537 0)
(0.333105 0.065541 0)
(0.31207 0.0833442 0)
(0.30607 0.0789584 0)
(0.322188 0.0791741 0)
(0.342961 0.0658834 0)
(0.389889 0.0689881 0)
(-0.0144232 -0.513338 0)
(-0.151981 -0.15621 0)
(-0.162206 0.273133 0)
(-0.201028 0.106754 0)
(-0.078846 -0.151342 0)
(-0.103254 -0.0938262 0)
(-0.101568 -0.0137951 0)
(-0.103894 -0.0858052 0)
(-0.159095 -0.216485 0)
(-0.260819 -0.286517 0)
(-0.374534 -0.20883 0)
(-0.489206 -0.169016 0)
(-0.597531 -0.135241 0)
(-0.68401 -0.0962925 0)
(-0.502309 -0.0654823 0)
(-0.0869899 -0.0215721 0)
(0.110321 0.0325349 0)
(0.212424 0.0895521 0)
(0.26942 0.0987091 0)
(0.324633 0.0791672 0)
(0.354893 0.0732586 0)
(0.365227 0.0494075 0)
(0.37938 0.0174578 0)
(-0.122905 -0.215577 0)
(-0.232318 -0.203543 0)
(-0.174807 -0.0839479 0)
(-0.0063881 -0.0449583 0)
(-0.0228977 -0.0658782 0)
(-0.0694126 -0.0387976 0)
(-0.0453465 -0.0276799 0)
(-0.0346655 -0.0446759 0)
(-0.0536982 -0.066457 0)
(-0.0819898 -0.0660453 0)
(-0.0984056 -0.00848622 0)
(-0.129879 0.0562726 0)
(-0.225699 0.0139117 0)
(-0.314465 -0.148156 0)
(-0.32607 -0.3115 0)
(-0.43102 -0.548279 0)
(-0.479569 -0.194925 0)
(-0.278069 -0.0804212 0)
(0.00317636 -0.032078 0)
(0.150816 -0.00847706 0)
(0.219656 0.044615 0)
(0.285104 0.0483985 0)
(0.363259 0.0400318 0)
(-0.0789371 -0.11859 0)
(-0.0765245 -0.207795 0)
(-0.0884438 -0.0639007 0)
(-0.0393946 -0.051526 0)
(-0.0460468 -0.0759778 0)
(-0.0549378 -0.0530648 0)
(-0.0532675 -0.0455034 0)
(-0.0574038 -0.061932 0)
(-0.0711678 -0.0963322 0)
(-0.0859971 -0.115014 0)
(-0.0861574 -0.0853441 0)
(-0.0545554 0.000742011 0)
(-0.0402638 0.0861524 0)
(-0.072677 0.049744 0)
(-0.0255096 -0.110166 0)
(-0.0559337 -0.167189 0)
(-0.0212341 -0.13648 0)
(0.0407579 -0.377308 0)
(0.0700511 -0.302234 0)
(-0.0415788 -0.0979584 0)
(-0.226438 -0.0647077 0)
(-0.0865679 -0.133172 0)
(-0.0329562 -0.0983365 0)
(-0.037894 -0.0568568 0)
(-0.0430524 -0.161236 0)
(-0.0656024 -0.0903686 0)
(-0.044362 -0.0668777 0)
(-0.04378 -0.0611749 0)
(-0.0441238 -0.0492711 0)
(-0.0441721 -0.0419673 0)
(-0.0484146 -0.0500905 0)
(-0.0604035 -0.0717648 0)
(-0.0771986 -0.0884173 0)
(-0.0884203 -0.0717375 0)
(-0.0764911 -0.0161852 0)
(-0.0399808 0.0134199 0)
(0.0202021 -0.0999295 0)
(0.0590169 -0.266807 0)
(0.021673 -0.321646 0)
(0.0471655 -0.252634 0)
(0.0792131 -0.219652 0)
(0.113259 -0.161027 0)
(0.253855 0.180212 0)
(0.279748 0.17617 0)
(0.203612 -0.0641876 0)
(-0.451072 -0.143911 0)
(-0.0213587 -0.0271816 0)
(-0.0332101 -0.15364 0)
(-0.0441002 -0.0947007 0)
(-0.0366092 -0.0726961 0)
(-0.0352082 -0.0630673 0)
(-0.0326255 -0.0514533 0)
(-0.0307045 -0.0414919 0)
(-0.0323142 -0.0421647 0)
(-0.0406244 -0.0565744 0)
(-0.0535861 -0.0743348 0)
(-0.0605501 -0.0761646 0)
(-0.0402539 -0.0514246 0)
(0.0139576 -0.0273896 0)
(0.0817366 -0.0906988 0)
(0.0917192 -0.179132 0)
(0.0625037 -0.236579 0)
(0.0574588 -0.247192 0)
(0.0814264 -0.309921 0)
(0.10406 -0.354626 0)
(0.24074 -0.23399 0)
(0.475238 0.0032342 0)
(0.678532 0.280462 0)
(0.587699 0.555516 0)
(-0.0103864 -0.00625447 0)
(-0.0221032 -0.141334 0)
(-0.0303523 -0.0954578 0)
(-0.0272806 -0.0737087 0)
(-0.0263634 -0.0645882 0)
(-0.0229115 -0.0550386 0)
(-0.0182919 -0.0448762 0)
(-0.0142219 -0.0409314 0)
(-0.0142475 -0.0489984 0)
(-0.0186543 -0.0657592 0)
(-0.0211799 -0.0819954 0)
(-0.0106405 -0.0910112 0)
(0.0285872 -0.102466 0)
(0.0681389 -0.148934 0)
(0.0792966 -0.20141 0)
(0.0736347 -0.243325 0)
(0.0696357 -0.271211 0)
(0.0938848 -0.308154 0)
(0.114811 -0.377139 0)
(0.200431 -0.319112 0)
(0.351097 -0.20918 0)
(0.527412 0.0156936 0)
(0.775857 0.412466 0)
(-0.00331545 0.00648406 0)
(-0.0125377 -0.131209 0)
(-0.0203 -0.0933347 0)
(-0.01934 -0.0744309 0)
(-0.0184102 -0.0668061 0)
(-0.0148628 -0.059618 0)
(-0.0087584 -0.0514835 0)
(-0.00055432 -0.0465419 0)
(0.00675167 -0.0506574 0)
(0.0107949 -0.0645266 0)
(0.0142 -0.0837924 0)
(0.0203835 -0.104472 0)
(0.0375963 -0.125007 0)
(0.0541017 -0.159274 0)
(0.0592626 -0.197802 0)
(0.0517345 -0.233904 0)
(0.0370835 -0.271366 0)
(0.0443153 -0.329398 0)
(0.0366296 -0.422263 0)
(0.0618747 -0.435179 0)
(0.155543 -0.349552 0)
(0.2184 -0.154424 0)
(0.493049 0.223182 0)
(0.000586549 0.011479 0)
(-0.00674904 -0.123665 0)
(-0.0133346 -0.0905992 0)
(-0.0133213 -0.0743641 0)
(-0.0127596 -0.0688909 0)
(-0.00970522 -0.0643723 0)
(-0.00397254 -0.0594384 0)
(0.00482742 -0.056307 0)
(0.0149031 -0.0593171 0)
(0.0232683 -0.0707419 0)
(0.0294561 -0.0886072 0)
(0.0335787 -0.110375 0)
(0.038132 -0.133525 0)
(0.040831 -0.162477 0)
(0.036346 -0.19076 0)
(0.0246603 -0.220182 0)
(0.00759921 -0.258789 0)
(-0.0042547 -0.317404 0)
(-0.0341987 -0.400077 0)
(-0.0753337 -0.439002 0)
(-0.074355 -0.37458 0)
(-0.091211 -0.225667 0)
(0.0587773 0.106753 0)
(0.00230422 0.0130307 0)
(-0.0034379 -0.11756 0)
(-0.00889208 -0.0879295 0)
(-0.0093536 -0.0740272 0)
(-0.00920096 -0.0703987 0)
(-0.00703211 -0.0681314 0)
(-0.0028256 -0.0661511 0)
(0.00401859 -0.0656586 0)
(0.0126665 -0.0690771 0)
(0.0206473 -0.0786155 0)
(0.0260208 -0.0937164 0)
(0.0277742 -0.112533 0)
(0.0267332 -0.132991 0)
(0.0217301 -0.156163 0)
(0.01206 -0.179675 0)
(-0.000637967 -0.205079 0)
(-0.0171857 -0.238494 0)
(-0.0415864 -0.28809 0)
(-0.0851254 -0.355217 0)
(-0.152023 -0.396252 0)
(-0.216417 -0.354835 0)
(-0.251966 -0.214152 0)
(-0.213093 0.0158536 0)
(0.00287269 0.0127887 0)
(-0.00157711 -0.112552 0)
(-0.00621998 -0.0852853 0)
(-0.00702661 -0.0734258 0)
(-0.0072621 -0.0712576 0)
(-0.00606619 -0.0705453 0)
(-0.0035928 -0.0705299 0)
(0.000497934 -0.0719943 0)
(0.00581915 -0.0761112 0)
(0.0108442 -0.0842096 0)
(0.0136791 -0.0963585 0)
(0.0130496 -0.111566 0)
(0.00914951 -0.128392 0)
(0.00173333 -0.147376 0)
(-0.00905428 -0.167804 0)
(-0.0226793 -0.189489 0)
(-0.0398963 -0.215385 0)
(-0.0677584 -0.251772 0)
(-0.116318 -0.297655 0)
(-0.187486 -0.330473 0)
(-0.26579 -0.314042 0)
(-0.311664 -0.218446 0)
(-0.284232 -0.053365 0)
(0.00272481 0.0118226 0)
(-0.000773469 -0.108502 0)
(-0.00478652 -0.0828284 0)
(-0.00587908 -0.0725152 0)
(-0.00654233 -0.0714299 0)
(-0.00623773 -0.0716757 0)
(-0.00522395 -0.0726818 0)
(-0.00347851 -0.0750959 0)
(-0.00126437 -0.0795115 0)
(0.000541297 -0.0864889 0)
(0.000716352 -0.0961907 0)
(-0.00171622 -0.108301 0)
(-0.0070061 -0.122114 0)
(-0.0152357 -0.137691 0)
(-0.0269474 -0.15471 0)
(-0.0421592 -0.173005 0)
(-0.0611167 -0.192425 0)
(-0.0885621 -0.214218 0)
(-0.133852 -0.238198 0)
(-0.201524 -0.254581 0)
(-0.279594 -0.24295 0)
(-0.337839 -0.185213 0)
(-0.342748 -0.0838741 0)
(0.00233456 0.0108634 0)
(-0.000571005 -0.105076 0)
(-0.00419633 -0.0804285 0)
(-0.00556777 -0.0713005 0)
(-0.00664482 -0.0709701 0)
(-0.00710809 -0.0717798 0)
(-0.00720279 -0.0732264 0)
(-0.00707771 -0.0758737 0)
(-0.00702628 -0.0800923 0)
(-0.00754061 -0.0861101 0)
(-0.00933424 -0.0939889 0)
(-0.0130742 -0.103673 0)
(-0.0192288 -0.114839 0)
(-0.0281294 -0.127214 0)
(-0.0403232 -0.140531 0)
(-0.0565897 -0.154543 0)
(-0.0779087 -0.168525 0)
(-0.105456 -0.1808 0)
(-0.141615 -0.18952 0)
(-0.190278 -0.191857 0)
(-0.250079 -0.178307 0)
(-0.304723 -0.135562 0)
(-0.331624 -0.0672766 0)
(0.00190331 0.0101485 0)
(-0.000712017 -0.101972 0)
(-0.00414533 -0.0780165 0)
(-0.0057762 -0.0697808 0)
(-0.0072481 -0.0699465 0)
(-0.00836668 -0.0710654 0)
(-0.00932609 -0.0726617 0)
(-0.0102988 -0.0751995 0)
(-0.0115909 -0.0789534 0)
(-0.0135607 -0.0840425 0)
(-0.0166429 -0.0904989 0)
(-0.0213136 -0.0982129 0)
(-0.0280616 -0.10701 0)
(-0.0372531 -0.116544 0)
(-0.0493056 -0.126374 0)
(-0.0647809 -0.135962 0)
(-0.0845131 -0.144881 0)
(-0.109328 -0.152226 0)
(-0.139632 -0.155478 0)
(-0.175409 -0.150357 0)
(-0.214384 -0.132441 0)
(-0.248806 -0.099699 0)
(-0.268329 -0.0570253 0)
(0.00150219 0.00976317 0)
(-0.00102358 -0.0989827 0)
(-0.00441521 -0.0755218 0)
(-0.00628222 -0.0679722 0)
(-0.00812028 -0.0684242 0)
(-0.00978991 -0.0696686 0)
(-0.0114551 -0.0712583 0)
(-0.013249 -0.0735596 0)
(-0.0154351 -0.0767732 0)
(-0.018329 -0.0809697 0)
(-0.0222455 -0.0861484 0)
(-0.0275664 -0.0921773 0)
(-0.034676 -0.0989018 0)
(-0.0439048 -0.105974 0)
(-0.0555846 -0.113015 0)
(-0.0700143 -0.119435 0)
(-0.0875545 -0.124376 0)
(-0.108614 -0.126589 0)
(-0.133407 -0.124672 0)
(-0.16108 -0.116973 0)
(-0.188675 -0.101043 0)
(-0.211444 -0.0753533 0)
(-0.224833 -0.0433989 0)
(0.00116758 0.0097034 0)
(-0.00139026 -0.0959635 0)
(-0.00484788 -0.072899 0)
(-0.00692339 -0.0658929 0)
(-0.00909001 -0.0664759 0)
(-0.0112081 -0.0677066 0)
(-0.0134383 -0.0691808 0)
(-0.015877 -0.0711877 0)
(-0.0187262 -0.0738558 0)
(-0.0222515 -0.0772167 0)
(-0.0267054 -0.0812334 0)
(-0.0324014 -0.0858036 0)
(-0.0396147 -0.090736 0)
(-0.0485945 -0.0957302 0)
(-0.0596047 -0.100405 0)
(-0.0728266 -0.104232 0)
(-0.088387 -0.106558 0)
(-0.106237 -0.106466 0)
(-0.12604 -0.102742 0)
(-0.146924 -0.0941051 0)
(-0.167008 -0.0797247 0)
(-0.183592 -0.0599217 0)
(-0.193981 -0.0368835 0)
(0.00091706 0.00996068 0)
(-0.00173955 -0.092832 0)
(-0.00533661 -0.0701263 0)
(-0.00758593 -0.063571 0)
(-0.0100359 -0.0641781 0)
(-0.0125042 -0.0652991 0)
(-0.0151629 -0.0665804 0)
(-0.01808 -0.0682543 0)
(-0.021416 -0.0703921 0)
(-0.0253673 -0.0729987 0)
(-0.0301379 -0.0760062 0)
(-0.0359678 -0.0793314 0)
(-0.0430498 -0.0827706 0)
(-0.0515728 -0.0860864 0)
(-0.0616927 -0.0889328 0)
(-0.0734618 -0.0908561 0)
(-0.0868712 -0.0912603 0)
(-0.101756 -0.0893981 0)
(-0.117702 -0.0844781 0)
(-0.133849 -0.0758702 0)
(-0.148783 -0.0633733 0)
(-0.160984 -0.0475296 0)
(-0.168994 -0.0298253 0)
(0.000742391 0.010492 0)
(-0.0020482 -0.0895467 0)
(-0.00581665 -0.0672042 0)
(-0.00819634 -0.0610423 0)
(-0.0108793 -0.0616037 0)
(-0.0136102 -0.0625584 0)
(-0.0165744 -0.0636026 0)
(-0.0198149 -0.0649267 0)
(-0.0234697 -0.0665687 0)
(-0.0276767 -0.0685034 0)
(-0.0325903 -0.0706625 0)
(-0.038383 -0.0729442 0)
(-0.0451895 -0.0751801 0)
(-0.0531431 -0.0771723 0)
(-0.0623307 -0.0786225 0)
(-0.0727402 -0.079161 0)
(-0.0842789 -0.0783209 0)
(-0.096711 -0.0755497 0)
(-0.109599 -0.0702992 0)
(-0.122227 -0.0622316 0)
(-0.133582 -0.0514861 0)
(-0.142734 -0.0387418 0)
(-0.148826 -0.0251145 0)
(0.000640491 0.0112291 0)
(-0.00229979 -0.0860942 0)
(-0.00624425 -0.0641509 0)
(-0.00870911 -0.0583489 0)
(-0.0115732 -0.0588213 0)
(-0.0144888 -0.0595807 0)
(-0.0176563 -0.0603715 0)
(-0.0210996 -0.0613531 0)
(-0.0249292 -0.0625432 0)
(-0.0292512 -0.0638912 0)
(-0.0341737 -0.0653351 0)
(-0.0398179 -0.0667628 0)
(-0.0462794 -0.0680423 0)
(-0.0536346 -0.0690052 0)
(-0.0619238 -0.069415 0)
(-0.0710967 -0.0689733 0)
(-0.0810157 -0.0673273 0)
(-0.0914342 -0.0640665 0)
(-0.101953 -0.0588396 0)
(-0.111998 -0.0515043 0)
(-0.120811 -0.0423507 0)
(-0.127761 -0.0320547 0)
(-0.132306 -0.0215478 0)
(0.000598092 0.0121101 0)
(-0.00249082 -0.0824771 0)
(-0.00658907 -0.0609948 0)
(-0.00909702 -0.055536 0)
(-0.0120908 -0.0558951 0)
(-0.0151221 -0.0564482 0)
(-0.0184092 -0.0569887 0)
(-0.0219604 -0.0576499 0)
(-0.0258594 -0.058431 0)
(-0.0301867 -0.0592774 0)
(-0.0350212 -0.060121 0)
(-0.0404465 -0.0608614 0)
(-0.0465265 -0.0613866 0)
(-0.0532983 -0.0615623 0)
(-0.0607613 -0.0612064 0)
(-0.0688523 -0.0600896 0)
(-0.07742 -0.0579578 0)
(-0.0862325 -0.0545103 0)
(-0.0949447 -0.0495313 0)
(-0.103101 -0.0429937 0)
(-0.110122 -0.0352702 0)
(-0.115532 -0.027035 0)
(-0.118945 -0.0191329 0)
(0.000594739 0.0130811 0)
(-0.00262262 -0.0787208 0)
(-0.00682532 -0.0577741 0)
(-0.00933881 -0.0526481 0)
(-0.0124135 -0.0528833 0)
(-0.0155016 -0.0532315 0)
(-0.0188395 -0.0535356 0)
(-0.0224202 -0.0539035 0)
(-0.0263101 -0.0543234 0)
(-0.0305681 -0.0547418 0)
(-0.0352478 -0.0550898 0)
(-0.0404108 -0.0552799 0)
(-0.0461005 -0.0552108 0)
(-0.0523202 -0.0547886 0)
(-0.0590478 -0.053872 0)
(-0.0662245 -0.0522999 0)
(-0.0736943 -0.0498935 0)
(-0.0812539 -0.0464386 0)
(-0.0886151 -0.0418024 0)
(-0.0954182 -0.0360422 0)
(-0.101213 -0.0295817 0)
(-0.105618 -0.0231075 0)
(-0.108348 -0.0174296 0)
(0.000604003 0.0141018 0)
(-0.00269043 -0.0748788 0)
(-0.00692334 -0.0545345 0)
(-0.00941269 -0.0497269 0)
(-0.0125226 -0.0498365 0)
(-0.015617 -0.0499908 0)
(-0.0189489 -0.0500773 0)
(-0.022499 -0.0501815 0)
(-0.0263217 -0.050288 0)
(-0.0304577 -0.0503422 0)
(-0.0349462 -0.0502807 0)
(-0.0398236 -0.0500304 0)
(-0.0451278 -0.0494972 0)
(-0.0508441 -0.0486145 0)
(-0.0569291 -0.0472897 0)
(-0.063345 -0.0454111 0)
(-0.0699463 -0.0428585 0)
(-0.0765486 -0.039491 0)
(-0.0829234 -0.0352173 0)
(-0.0887989 -0.0301605 0)
(-0.0938214 -0.0247767 0)
(-0.0976807 -0.0197964 0)
(-0.10016 -0.0160126 0)
(0.000600841 0.0151436 0)
(-0.00267937 -0.0710335 0)
(-0.00685429 -0.0513262 0)
(-0.00929413 -0.046811 0)
(-0.0123967 -0.0467973 0)
(-0.0154536 -0.0467729 0)
(-0.0187341 -0.0466623 0)
(-0.022208 -0.046535 0)
(-0.0259224 -0.0463701 0)
(-0.0299035 -0.0461162 0)
(-0.0341832 -0.0457149 0)
(-0.0387762 -0.0451051 0)
(-0.0437104 -0.0442137 0)
(-0.0489726 -0.0429728 0)
(-0.0545102 -0.0413426 0)
(-0.0602989 -0.0392525 0)
(-0.066223 -0.036621 0)
(-0.0721116 -0.0333623 0)
(-0.0777929 -0.0294254 0)
(-0.0830765 -0.0249634 0)
(-0.0876939 -0.0204479 0)
(-0.0914062 -0.0166694 0)
(-0.0940388 -0.014412 0)
(0.000579683 0.0161772 0)
(-0.00256304 -0.0672895 0)
(-0.00659946 -0.0482006 0)
(-0.00896517 -0.0439348 0)
(-0.0120181 -0.0438039 0)
(-0.0149974 -0.0436159 0)
(-0.0181901 -0.043327 0)
(-0.0215533 -0.0429961 0)
(-0.0251297 -0.0425958 0)
(-0.0289357 -0.0420814 0)
(-0.032998 -0.0413959 0)
(-0.037324 -0.0404923 0)
(-0.0419176 -0.0393113 0)
(-0.0467757 -0.0377941 0)
(-0.051855 -0.0359257 0)
(-0.057132 -0.0336741 0)
(-0.0625253 -0.030987 0)
(-0.0679001 -0.0278173 0)
(-0.0731303 -0.0241475 0)
(-0.0780807 -0.0201295 0)
(-0.0825766 -0.0162511 0)
(-0.086464 -0.01334 0)
(-0.0896317 -0.0121885 0)
(0.000563808 0.0171463 0)
(-0.00231465 -0.0637457 0)
(-0.00616273 -0.0452057 0)
(-0.00842665 -0.0411331 0)
(-0.0113882 -0.040897 0)
(-0.0142493 -0.0405592 0)
(-0.0173193 -0.040108 0)
(-0.0205389 -0.0395913 0)
(-0.0239516 -0.0389829 0)
(-0.0275654 -0.0382428 0)
(-0.0314078 -0.037318 0)
(-0.0354779 -0.0361708 0)
(-0.0397643 -0.0347474 0)
(-0.044272 -0.0330108 0)
(-0.0489669 -0.0309451 0)
(-0.0538304 -0.0285535 0)
(-0.0588143 -0.0257988 0)
(-0.0638248 -0.0226719 0)
(-0.0687772 -0.0191605 0)
(-0.0735973 -0.0154076 0)
(-0.0781881 -0.01191 0)
(-0.0825019 -0.0095066 0)
(-0.0865226 -0.00897005 0)
(0.000606017 0.0179834 0)
(-0.00192405 -0.060467 0)
(-0.00557885 -0.0423794 0)
(-0.00770451 -0.0384453 0)
(-0.0105384 -0.0381198 0)
(-0.013237 -0.0376467 0)
(-0.0161435 -0.0370452 0)
(-0.019181 -0.0363569 0)
(-0.0223979 -0.0355589 0)
(-0.0257946 -0.0346136 0)
(-0.0294004 -0.0334838 0)
(-0.0332124 -0.0321226 0)
(-0.0372111 -0.0304937 0)
(-0.0414025 -0.0285685 0)
(-0.0457687 -0.0263297 0)
(-0.0502883 -0.0237949 0)
(-0.0549452 -0.0209446 0)
(-0.0596941 -0.0177852 0)
(-0.0644846 -0.0143071 0)
(-0.0693067 -0.0106287 0)
(-0.0741296 -0.00722729 0)
(-0.0790068 -0.00494959 0)
(-0.0840361 -0.00447135 0)
(0.000736379 0.0185293 0)
(-0.00142612 -0.0574707 0)
(-0.00491088 -0.0397402 0)
(-0.00684456 -0.0359086 0)
(-0.00952481 -0.0355137 0)
(-0.012014 -0.0349204 0)
(-0.014714 -0.0341827 0)
(-0.0175229 -0.0333372 0)
(-0.020494 -0.0323631 0)
(-0.0236342 -0.0312287 0)
(-0.026965 -0.0299104 0)
(-0.030484 -0.0283556 0)
(-0.0341809 -0.0265399 0)
(-0.0380542 -0.0244386 0)
(-0.0420982 -0.0220362 0)
(-0.0463011 -0.0193419 0)
(-0.0506631 -0.0163606 0)
(-0.0551792 -0.0130837 0)
(-0.0598378 -0.00950575 0)
(-0.064681 -0.00570854 0)
(-0.0697477 -0.00211061 0)
(-0.0751683 0.000462381 0)
(-0.0811547 0.00145125 0)
(0.00102571 0.0186715 0)
(-0.000820409 -0.0547012 0)
(-0.004224 -0.0372793 0)
(-0.00590399 -0.0335453 0)
(-0.00842007 -0.0331074 0)
(-0.0106575 -0.0324106 0)
(-0.0131107 -0.0315571 0)
(-0.0156421 -0.0305712 0)
(-0.0183149 -0.029438 0)
(-0.0211401 -0.0281351 0)
(-0.0241337 -0.0266359 0)
(-0.0272974 -0.0249023 0)
(-0.0306312 -0.022909 0)
(-0.0341327 -0.0206342 0)
(-0.0378027 -0.0180668 0)
(-0.0416428 -0.0152001 0)
(-0.0456581 -0.0120414 0)
(-0.0498713 -0.0085718 0)
(-0.0543092 -0.00477142 0)
(-0.0590346 -0.00067432 0)
(-0.0641398 0.00335473 0)
(-0.0698558 0.00659423 0)
(-0.0764558 0.00865496 0)
(0.00145032 0.0183142 0)
(-0.000173383 -0.0520241 0)
(-0.00358661 -0.0349829 0)
(-0.00494974 -0.0313689 0)
(-0.00730977 -0.0309208 0)
(-0.00926531 -0.03014 0)
(-0.0114502 -0.0291955 0)
(-0.0136704 -0.0280966 0)
(-0.0160058 -0.0268317 0)
(-0.0184614 -0.0253832 0)
(-0.0210527 -0.0237245 0)
(-0.0237873 -0.0218287 0)
(-0.02667 -0.0196697 0)
(-0.0297052 -0.0172278 0)
(-0.032894 -0.0144914 0)
(-0.0362461 -0.0114469 0)
(-0.0397754 -0.0080823 0)
(-0.0435082 -0.00437357 0)
(-0.0474792 -0.000270068 0)
(-0.051788 0.00421132 0)
(-0.0565383 0.00880283 0)
(-0.0619757 0.0129344 0)
(-0.0684625 0.0163951 0)
(0.00200268 0.017354 0)
(0.000476503 -0.0493856 0)
(-0.00305573 -0.0328637 0)
(-0.00405035 -0.0294205 0)
(-0.00629722 -0.0289944 0)
(-0.00795934 -0.0281503 0)
(-0.00988873 -0.0271466 0)
(-0.0118003 -0.0259698 0)
(-0.0137903 -0.0246104 0)
(-0.0158575 -0.0230512 0)
(-0.0180146 -0.0212709 0)
(-0.0202705 -0.0192444 0)
(-0.0226329 -0.0169479 0)
(-0.0251083 -0.0143626 0)
(-0.0277012 -0.0114742 0)
(-0.0304182 -0.00826735 0)
(-0.0332713 -0.00471072 0)
(-0.0362755 -0.000765585 0)
(-0.0394755 0.0036329 0)
(-0.0429547 0.00848622 0)
(-0.0467671 0.013665 0)
(-0.0511912 0.0187318 0)
(-0.0565397 0.0236592 0)
(0.00268043 0.0157344 0)
(0.00109082 -0.0466998 0)
(-0.00268027 -0.030923 0)
(-0.00327801 -0.0277438 0)
(-0.00548777 -0.0273555 0)
(-0.00687198 -0.0264698 0)
(-0.00859781 -0.0254423 0)
(-0.0102427 -0.024226 0)
(-0.0119276 -0.022816 0)
(-0.0136417 -0.0211965 0)
(-0.0153919 -0.0193466 0)
(-0.0171844 -0.0172424 0)
(-0.0190247 -0.014861 0)
(-0.0209163 -0.0121851 0)
(-0.0228586 -0.00920044 0)
(-0.0248494 -0.00588321 0)
(-0.026888 -0.00219404 0)
(-0.0289679 0.00191747 0)
(-0.031105 0.00650708 0)
(-0.0333346 0.0116179 0)
(-0.0356745 0.0171875 0)
(-0.0382947 0.0229582 0)
(-0.0414675 0.0290314 0)
(0.00339198 0.0133797 0)
(0.00158392 -0.0437584 0)
(-0.00248056 -0.0290247 0)
(-0.00268334 -0.0262241 0)
(-0.00494668 -0.0258623 0)
(-0.00609391 -0.0249589 0)
(-0.00769266 -0.0239384 0)
(-0.00914208 -0.0227203 0)
(-0.0106017 -0.0213064 0)
(-0.012047 -0.0196808 0)
(-0.0134782 -0.0178217 0)
(-0.0148962 -0.0157056 0)
(-0.0163008 -0.0133114 0)
(-0.0176873 -0.0106257 0)
(-0.0190389 -0.00763661 0)
(-0.0203361 -0.00431805 0)
(-0.0215634 -0.00062258 0)
(-0.022691 0.00350518 0)
(-0.0236786 0.00808181 0)
(-0.0245164 0.0131549 0)
(-0.02514 0.0187533 0)
(-0.0255288 0.0247857 0)
(-0.0259408 0.031362 0)
(0.0041292 0.0105041 0)
(0.002002 -0.0402976 0)
(-0.00241488 -0.0269244 0)
(-0.00225919 -0.0246073 0)
(-0.00465411 -0.0242374 0)
(-0.00561534 -0.023345 0)
(-0.00716008 -0.0223505 0)
(-0.00848865 -0.02116 0)
(-0.00981194 -0.0197769 0)
(-0.0110906 -0.0181839 0)
(-0.0123199 -0.0163603 0)
(-0.013497 -0.014284 0)
(-0.0146159 -0.0119385 0)
(-0.0156598 -0.0093204 0)
(-0.016592 -0.00642391 0)
(-0.017369 -0.00323482 0)
(-0.0179525 0.00028496 0)
(-0.0183173 0.00418047 0)
(-0.0183741 0.00847549 0)
(-0.0179819 0.0132011 0)
(-0.0170135 0.0183918 0)
(-0.015271 0.0240219 0)
(-0.0130337 0.0301521 0)
(0.00482804 0.00719425 0)
(0.00235372 -0.0364724 0)
(-0.00240926 -0.0247804 0)
(-0.0019514 -0.0230439 0)
(-0.00449951 -0.0226233 0)
(-0.00531757 -0.021778 0)
(-0.00684342 -0.0208184 0)
(-0.00810087 -0.0196693 0)
(-0.00934909 -0.0183314 0)
(-0.0105403 -0.0167877 0)
(-0.0116693 -0.0150202 0)
(-0.0127306 -0.013009 0)
(-0.013715 -0.0107458 0)
(-0.0145921 -0.0082407 0)
(-0.0153138 -0.00550048 0)
(-0.0158293 -0.00252656 0)
(-0.0160811 0.000688411 0)
(-0.0159965 0.00418817 0)
(-0.0154441 0.00799085 0)
(-0.0142915 0.0121184 0)
(-0.0123746 0.0165321 0)
(-0.0093327 0.0211931 0)
(-0.00531318 0.0259923 0)
(0.00533842 0.00307262 0)
(0.00257691 -0.032798 0)
(-0.00237325 -0.0231239 0)
(-0.0016948 -0.0220492 0)
(-0.00431996 -0.021546 0)
(-0.00501956 -0.0207794 0)
(-0.00650423 -0.0198548 0)
(-0.00769631 -0.0187477 0)
(-0.00888573 -0.0174543 0)
(-0.0100217 -0.0159619 0)
(-0.0111009 -0.0142526 0)
(-0.0121161 -0.0123104 0)
(-0.0130531 -0.010138 0)
(-0.0138739 -0.0077537 0)
(-0.0145313 -0.0051801 0)