/*--------------------------------*- C++ -*----------------------------------*\
| =========                 |                                                 |
| \\      /  F ield         | OpenFOAM: The Open Source CFD Toolbox           |
|  \\    /   O peration     | Version:  2206                                  |
|   \\  /    A nd           | Website:  www.openfoam.com                      |
|    \\/     M anipulation  |                                                 |
\*---------------------------------------------------------------------------*/
FoamFile
{
    version     2.0;
    format      ascii;
    arch        "LSB;label=32;scalar=64";
    class       surfaceScalarField;
    location    "0.2";
    object      alphaPhi0.water;
}
// * * * * * * * * * * * * * * * * * * * * * * * * * * * * * * * * * * * * * //

dimensions      [0 3 -1 0 0 0 0];

oriented        oriented;

internalField   nonuniform List<scalar> 
4432
(
2.15043e-06
-2.15043e-06
7.87909e-06
-5.72866e-06
1.42583e-05
-6.37916e-06
2.01805e-05
-5.92229e-06
2.56229e-05
-5.44239e-06
3.0843e-05
-5.22008e-06
3.60555e-05
-5.21248e-06
4.13653e-05
-5.30983e-06
4.67821e-05
-5.41677e-06
5.22501e-05
-5.46799e-06
5.7666e-05
-5.41592e-06
6.28795e-05
-5.21349e-06
6.76826e-05
-4.80309e-06
7.17904e-05
-4.10779e-06
7.47775e-05
-2.98713e-06
7.58172e-05
-1.03964e-06
7.33515e-05
2.46563e-06
6.51074e-05
8.24411e-06
4.91515e-05
1.59559e-05
2.51109e-05
2.40405e-05
-2.26772e-06
2.74062e-05
-1.36907e-05
1.48626e-05
-1.55974e-05
2.19992e-06
-4.35035e-06
7.92917e-06
-1.14579e-05
1.43075e-05
-1.27575e-05
2.02367e-05
-1.18515e-05
2.5685e-05
-1.08907e-05
3.09173e-05
-1.04523e-05
3.61516e-05
-1.04469e-05
4.14899e-05
-1.06481e-05
4.69393e-05
-1.08663e-05
5.24464e-05
-1.09751e-05
5.7912e-05
-1.08815e-05
6.31897e-05
-1.04912e-05
6.80762e-05
-9.68956e-06
7.2291e-05
-8.32261e-06
7.54757e-05
-6.1718e-06
7.74166e-05
-2.98052e-06
7.81542e-05
1.72803e-06
7.7488e-05
8.91031e-06
7.31909e-05
2.0253e-05
6.09767e-05
3.62547e-05
3.85095e-05
4.98733e-05
1.33284e-05
4.04723e-05
-3.44009e-06
2.26278e-06
-6.61312e-06
7.98075e-06
-1.71759e-05
1.43085e-05
-1.90853e-05
2.01859e-05
-1.77288e-05
2.55989e-05
-1.63038e-05
3.08188e-05
-1.56722e-05
3.60617e-05
-1.56897e-05
4.14221e-05
-1.60085e-05
4.69042e-05
-1.63484e-05
5.24571e-05
-1.65279e-05
5.79875e-05
-1.64119e-05
6.33574e-05
-1.58611e-05
6.83741e-05
-1.47062e-05
7.27766e-05
-1.27252e-05
7.62268e-05
-9.62197e-06
7.82649e-05
-5.01859e-06
7.84419e-05
1.55097e-06
7.67071e-05
1.06452e-05
7.37528e-05
2.32073e-05
6.93977e-05
4.06098e-05
5.81343e-05
6.11366e-05
3.28242e-05
6.57826e-05
2.78505e-05
2.3547e-06
-8.96782e-06
8.0694e-06
-2.28906e-05
1.43243e-05
-2.53402e-05
2.01216e-05
-2.35261e-05
2.54856e-05
-2.16678e-05
3.06952e-05
-2.08818e-05
3.59577e-05
-2.09522e-05
4.13572e-05
-2.1408e-05
4.68941e-05
-2.18853e-05
5.25214e-05
-2.21552e-05
5.81542e-05
-2.20448e-05
6.36673e-05
-2.13742e-05
6.88851e-05
-1.9924e-05
7.35627e-05
-1.74028e-05
7.73655e-05
-1.34247e-05
7.98668e-05
-7.5199e-06
8.05592e-05
8.58595e-07
7.89614e-05
1.2243e-05
7.50453e-05
2.71234e-05
7.01617e-05
4.54933e-05
6.24631e-05
6.88353e-05
4.1269e-05
8.69767e-05
6.90278e-05
2.47679e-06
-1.14446e-05
8.18932e-06
-2.86031e-05
1.43458e-05
-3.14967e-05
2.00363e-05
-2.92166e-05
2.53395e-05
-2.69709e-05
3.05407e-05
-2.6083e-05
3.58317e-05
-2.62433e-05
4.12821e-05
-2.68584e-05
4.68889e-05
-2.74921e-05
5.26108e-05
-2.7877e-05
5.83748e-05
-2.78088e-05
6.40734e-05
-2.70728e-05
6.95527e-05
-2.54034e-05
7.45853e-05
-2.24353e-05
7.88451e-05
-1.76845e-05
8.19131e-05
-1.05879e-05
8.33223e-05
-5.50541e-07
8.25542e-05
1.30111e-05
7.89871e-05
3.06905e-05
7.25125e-05
5.19679e-05
6.34989e-05
7.78489e-05
4.40385e-05
0.000106437
0.000113736
2.62992e-06
-1.40745e-05
8.3322e-06
-3.43054e-05
1.4361e-05
-3.75255e-05
1.99207e-05
-3.47763e-05
2.51538e-05
-3.2204e-05
3.03473e-05
-3.12765e-05
3.56706e-05
-3.15666e-05
4.11764e-05
-3.23642e-05
4.68595e-05
-3.31752e-05
5.26871e-05
-3.37046e-05
5.86021e-05
-3.37238e-05
6.45201e-05
-3.29909e-05
7.03117e-05
-3.11949e-05
7.57665e-05
-2.78902e-05
8.05708e-05
-2.24888e-05
8.43166e-05
-1.43338e-05
8.65478e-05
-2.78173e-06
8.67291e-05
1.28298e-05
8.41775e-05
3.32422e-05
7.76045e-05
5.85409e-05
6.65851e-05
8.88683e-05
4.66599e-05
0.000126362
0.000159009
2.80876e-06
-1.68833e-05
8.48393e-06
-3.99806e-05
1.43556e-05
-4.33972e-05
1.97663e-05
-4.01869e-05
2.49232e-05
-3.73609e-05
3.01082e-05
-3.64616e-05
3.54632e-05
-3.69215e-05
4.10231e-05
-3.79242e-05
4.67828e-05
-3.89349e-05
5.27208e-05
-3.96426e-05
5.88009e-05
-3.98039e-05
6.49656e-05
-3.91556e-05
7.11092e-05
-3.73384e-05
7.70394e-05
-3.38204e-05
8.24637e-05
-2.79131e-05
8.70057e-05
-1.88758e-05
9.02147e-05
-5.99075e-06
9.14965e-05
1.1548e-05
9.01675e-05
3.45712e-05
8.47245e-05
6.39839e-05
7.31287e-05
0.000100464
5.38936e-05
0.000145597
0.00020868
3.0009e-06
-1.98842e-05
8.62299e-06
-4.56026e-05
1.43178e-05
-4.90921e-05
1.95719e-05
-4.5441e-05
2.46502e-05
-4.24393e-05
2.98246e-05
-4.16359e-05
3.52065e-05
-4.23035e-05
4.08151e-05
-4.35328e-05
4.66476e-05
-4.47674e-05
5.26976e-05
-4.56926e-05
5.89541e-05
-4.60604e-05
6.53867e-05
-4.55882e-05
7.1913e-05
-4.38647e-05
7.83648e-05
-4.02722e-05
8.44789e-05
-3.40273e-05
8.99167e-05
-2.43136e-05
9.42594e-05
-1.03334e-05
9.68647e-05
8.94265e-06
9.70703e-05
3.43656e-05
9.3458e-05
6.75957e-05
8.26903e-05
0.000111231
6.17222e-05
0.000166565
0.00026777
1.59711e-23
-2.36131e-23
1.81689e-24
-3.45791e-24
2.04293e-25
-1.29524e-25
1.63593e-26
-1.17973e-25
7.01902e-28
-8.00595e-27
4.91413e-29
-4.31509e-28
4.04916e-30
-2.28841e-29
2.75588e-31
-1.08114e-30
1.41769e-32
-4.14937e-32
5.62639e-34
-7.74908e-34
1.81916e-35
3.31135e-36
4.79585e-37
4.40818e-37
9.9285e-39
1.99961e-38
1.57233e-40
5.8386e-40
1.81486e-42
1.21551e-41
1.3833e-44
1.84653e-43
5.67139e-47
1.8525e-45
1.37617e-47
1.00924e-47
3.11793e-48
-5.62446e-22
4.19579e-22
-1.53774e-22
-5.83214e-22
3.20257e-24
-1.85103e-22
4.30781e-24
-1.38394e-22
1.08131e-25
-6.27413e-24
5.2533e-27
-1.53199e-25
3.44193e-28
-4.37698e-27
2.09164e-29
-1.44156e-28
1.01588e-30
-4.20808e-30
3.91643e-32
-7.14133e-32
1.22433e-33
8.11348e-34
3.09526e-35
1.07811e-34
6.15648e-37
4.60024e-36
9.27464e-39
1.2942e-37
9.9333e-41
2.55481e-39
6.75007e-43
3.54591e-41
2.28581e-45
3.12731e-43
1.58753e-47
1.36567e-45
8.49276e-48
-2.12975e-20
2.72134e-20
-9.81573e-21
-6.01053e-20
7.47738e-22
-1.56751e-19
1.50612e-21
-1.32921e-19
9.37166e-24
-1.8207e-21
2.63228e-25
-2.06254e-23
1.25727e-26
-3.92399e-25
5.89883e-28
-8.9669e-27
2.44649e-29
-1.95992e-28
8.56731e-31
-2.69298e-30
2.49593e-32
2.75293e-32
5.91685e-34
3.35897e-33
1.10024e-35
1.32391e-34
1.53526e-37
3.4486e-36
1.49333e-39
6.31184e-38
9.07076e-42
7.85334e-40
3.01245e-44
6.442e-42
1.12502e-46
2.95636e-44
4.88092e-46
-5.68686e-19
5.06585e-19
-1.95888e-18
-3.16578e-18
-1.19781e-19
-5.42758e-17
4.81018e-20
-6.65436e-18
2.75319e-22
-5.30635e-20
8.36581e-24
-6.16925e-22
3.71919e-25
-1.53499e-23
1.37973e-26
-3.25134e-25
4.6066e-28
-5.54452e-27
1.40448e-29
-6.27665e-29
3.71701e-31
6.27603e-31
8.13166e-33
6.7092e-32
1.40119e-34
2.42486e-33
1.83643e-36
5.79034e-35
1.78946e-38
1.01604e-36
1.18525e-40
1.31249e-38
4.09178e-43
1.13691e-40
2.19101e-45
5.02245e-43
1.38972e-44
-3.33728e-17
2.11385e-17
-7.87127e-17
-5.13841e-16
-2.88553e-18
-1.86474e-16
1.04976e-19
-1.42932e-17
3.42326e-21
-4.47956e-19
1.55517e-22
-1.01807e-20
7.45349e-24
-3.16062e-22
2.41023e-25
-7.19354e-24
6.69624e-27
-9.88465e-26
1.7879e-28
-8.79922e-28
4.2929e-30
1.05981e-29
8.79958e-32
9.66277e-31
1.49174e-33
3.27806e-32
2.03301e-35
7.83358e-34
2.05786e-37
1.40886e-35
1.35583e-39
1.83713e-37
4.43089e-42
1.57064e-39
3.22532e-44
6.27506e-42
2.65021e-43
-1.23244e-15
1.12061e-15
-4.00026e-16
-1.4288e-15
-9.08585e-18
-4.47836e-16
6.79726e-20
-1.29151e-17
4.04935e-20
-3.16421e-18
2.63123e-21
-2.29465e-19
8.67562e-23
-4.2924e-21
3.02358e-24
-1.0531e-22
8.14423e-26
-1.7802e-24
1.87576e-27
-1.45338e-26
4.07089e-29
1.44759e-28
8.19053e-31
1.13322e-29
1.41841e-32
3.72733e-31
1.94245e-34
8.86818e-33
1.9351e-36
1.57406e-34
1.25242e-38
2.01398e-36
4.08889e-41
1.69183e-38
3.8284e-43
7.09788e-41
3.74205e-42
-2.98547e-15
4.79583e-15
-6.94871e-16
-6.07117e-16
-2.94325e-17
9.72906e-16
-5.71866e-19
7.17597e-18
5.46126e-19
-7.18625e-18
4.99179e-20
-1.57421e-18
5.94676e-22
-2.2677e-20
2.80806e-23
-5.08905e-22
1.19537e-24
-2.34511e-23
2.64792e-26
-3.07047e-25
4.83391e-28
2.38355e-27
8.37891e-30
1.53773e-28
1.28647e-31
4.43952e-30
1.62092e-33
9.49374e-32
1.54964e-35
1.55035e-33
9.73884e-38
1.88888e-35
3.20423e-40
1.52438e-37
3.69396e-42
6.70886e-40
4.11931e-41
-2.58262e-15
7.92705e-15
-6.31777e-15
1.46053e-15
-1.8298e-15
-1.76391e-14
-1.70522e-17
-2.98065e-15
6.0229e-19
-1.90065e-17
2.93785e-19
1.30819e-17
3.20521e-21
3.41635e-19
1.52775e-22
5.02894e-21
1.14937e-23
-2.65286e-24
3.18688e-25
-1.23313e-24
6.7461e-27
3.21558e-26
1.18532e-28
2.18924e-27
1.67123e-30
6.47516e-29
1.83212e-32
1.30406e-30
1.49211e-34
1.91547e-32
8.15635e-37
2.04593e-34
2.42614e-39
1.46668e-36
2.891e-41
5.99534e-39
3.58674e-40
6.89523e-06
-2.67794e-05
1.8783e-05
-5.74905e-05
3.02289e-05
-6.05379e-05
4.08226e-05
-5.60347e-05
5.13645e-05
-5.29812e-05
6.23237e-05
-5.25951e-05
7.38242e-05
-5.3804e-05
8.58752e-05
-5.55839e-05
9.84992e-05
-5.73914e-05
0.000111751
-5.8944e-05
0.000125704
-6.00139e-05
0.000140393
-6.02772e-05
0.00015576
-5.92313e-05
0.000171581
-5.6093e-05
0.000187373
-4.98197e-05
0.000202429
-3.93693e-05
0.000215919
-2.38239e-05
0.000226383
-1.52062e-06
0.000232767
2.79811e-05
0.000232153
6.82097e-05
0.000222769
0.000120616
0.000213395
0.000175939
0.000258945
0.000220429
7.66617e-06
-3.44456e-05
1.91376e-05
-6.89618e-05
2.96915e-05
-7.10919e-05
3.95985e-05
-6.59416e-05
4.98091e-05
-6.31918e-05
6.06675e-05
-6.34535e-05
7.21769e-05
-6.53134e-05
8.43232e-05
-6.77302e-05
9.71898e-05
-7.0258e-05
0.00011095
-7.27043e-05
0.00012582
-7.48841e-05
0.000142006
-7.64626e-05
0.000159741
-7.69668e-05
0.000179047
-7.53988e-05
0.000199477
-7.02496e-05
0.000220311
-6.0205e-05
0.000240632
-4.41454e-05
0.000258996
-1.98846e-05
0.000275022
1.19429e-05
0.000285862
5.73697e-05
0.000294542
0.000111936
0.000304055
0.000166426
0.000235311
0.000327788
8.37836e-06
-4.28239e-05
1.92521e-05
-7.98356e-05
2.88048e-05
-8.06446e-05
3.8036e-05
-7.51728e-05
4.7909e-05
-7.30648e-05
5.85711e-05
-7.41156e-05
6.99272e-05
-7.66695e-05
8.19752e-05
-7.97782e-05
9.48934e-05
-8.31761e-05
0.000108979
-8.67901e-05
0.000124575
-9.04803e-05
0.000142114
-9.40015e-05
0.000162278
-9.71299e-05
0.000185331
-9.84522e-05
0.000210769
-9.56881e-05
0.000237801
-8.72378e-05
0.000266058
-7.24067e-05
0.00029364
-4.74737e-05
0.000320441
-1.68018e-05
0.000337748
4.00595e-05
0.000342862
0.000106821
0.000344972
0.000164315
0.000217251
0.000362978
8.95052e-06
-5.17744e-05
1.90461e-05
-8.99312e-05
2.75803e-05
-8.91788e-05
3.61829e-05
-8.37753e-05
4.56821e-05
-8.2564e-05
5.60079e-05
-8.44414e-05
6.70112e-05
-8.76728e-05
7.87332e-05
-9.15002e-05
9.14493e-05
-9.58922e-05
0.000105492
-0.000100832
0.000121252
-0.000106241
0.000139353
-0.000112102
0.000161161
-0.000118936
0.000187119
-0.000124407
0.00021582
-0.000124385
0.000245131
-0.000116551
0.000273088
-0.000100939
0.000256089
-3.64329e-05
0.000209127
-8.09454e-06
0.000154693
3.18209e-06
0.000179854
7.86899e-06
0.000249458
2.2709e-05
8.8182e-05
0.000307245
9.34267e-06
-6.11171e-05
1.85033e-05
-9.90917e-05
2.60563e-05
-9.67319e-05
3.40758e-05
-9.17948e-05
4.31287e-05
-9.1617e-05
5.2951e-05
-9.42637e-05
6.33748e-05
-9.80966e-05
7.44792e-05
-0.000102605
8.65232e-05
-0.000107936
9.96788e-05
-0.000113988
0.000114268
-0.000120829
0.000131119
-0.00012895
0.000152917
-0.000140715
0.000179275
-0.000150706
0.000199368
-0.000144391
0.000159928
-6.57928e-05
7.24319e-05
-1.71988e-05
1.03122e-05
-3.30096e-06
2.57123e-06
-3.08206e-07
3.46567e-06
-1.39291e-09
8.36501e-06
6.34189e-07
2.26869e-05
2.23647e-06
5.40345e-06
7.58275e-05
9.556e-06
-7.06731e-05
1.76551e-05
-0.000107191
2.42966e-05
-0.000103373
3.17556e-05
-9.92537e-05
4.02446e-05
-0.000100106
4.93424e-05
-0.000103361
5.88538e-05
-0.000107608
6.88247e-05
-0.000112575
7.92937e-05
-0.000118403
9.02415e-05
-0.000124932
0.000101936
-0.000132508
0.000116007
-0.000142976
0.000136198
-0.000160667
0.00014014
-0.000145246
5.79525e-05
-3.30316e-05
1.99739e-05
-5.09135e-06
3.57797e-06
-7.75007e-07
3.94688e-07
-1.18084e-07
9.6368e-08
-1.16163e-08
9.46413e-08
-3.29281e-10
6.94307e-07
3.30038e-08
2.65047e-06
2.53626e-07
8.74504e-07
7.04991e-06
9.62419e-06
-8.02972e-05
1.65134e-05
-0.000114079
2.22808e-05
-0.00010914
2.9118e-05
-0.00010609
3.68019e-05
-0.000107788
4.47862e-05
-0.000111343
5.28286e-05
-0.000115647
6.08803e-05
-0.000120617
6.88388e-05
-0.000126338
7.69474e-05
-0.000132993
8.61312e-05
-0.000141515
9.67492e-05
-0.000152981
8.36145e-05
-0.000101919
3.61486e-05
-1.96096e-05
5.53245e-06
-2.10271e-06
8.52523e-07
-4.30811e-07
1.2932e-07
-7.07961e-08
1.48047e-08
-8.3045e-09
2.89506e-09
-5.82762e-10
2.27934e-09
-3.14137e-11
3.42841e-08
6.54595e-10
2.60621e-07
1.7731e-08
1.14452e-07
1.09149e-06
9.50116e-06
-8.97963e-05
1.49515e-05
-0.000119516
1.97621e-05
-0.000113938
2.57566e-05
-0.00011207
3.22153e-05
-0.000114227
3.8562e-05
-0.000117661
4.46252e-05
-0.00012167
5.0501e-05
-0.000126383
5.69203e-05
-0.000132494
6.42064e-05
-0.000137416
6.30569e-05
-0.000104769
3.63519e-05
-3.53188e-05
2.07978e-05
-5.0027e-06
2.02901e-06
-6.20912e-07
2.92954e-07
-3.85421e-07
5.50173e-08
-2.11699e-07
7.83516e-09
-2.8471e-08
1.04825e-09
-2.42132e-09
3.07033e-10
-1.60567e-10
1.14063e-10
-2.40999e-11
6.84319e-10
-3.17053e-12
1.92412e-08
1.05611e-09
1.25609e-08
1.30774e-07
9.25152e-06
-9.90161e-05
1.27585e-05
-0.000122874
1.63438e-05
-0.000117383
2.12247e-05
-0.00011678
2.62492e-05
-0.000119016
3.12562e-05
-0.000122344
3.63589e-05
-0.000123909
4.038e-05
-0.000106847
3.92366e-05
-7.45935e-05
2.70716e-05
-2.39993e-05
1.92178e-05
-3.03625e-06
5.6038e-06
-4.05667e-07
6.85564e-07
-6.30085e-08
7.62636e-08
-5.89027e-09
2.08632e-07
-3.6537e-07
2.16365e-07
-1.01548e-06
1.67064e-09
-9.3681e-08
2.12344e-10
-2.86549e-09
4.49214e-11
-1.7705e-10
2.81458e-11
-2.52015e-11
2.70854e-11
-1.98422e-12
1.05771e-09
2.63679e-12
6.55487e-10
1.28725e-08
9.42289e-06
-9.94496e-05
9.87316e-06
-9.0117e-05
1.22353e-05
-8.596e-05
1.57612e-05
-7.76009e-05
1.86041e-05
-6.46809e-05
1.98305e-05
-4.86817e-05
1.82153e-05
-2.46042e-05
1.20068e-05
-1.83512e-06
1.25457e-05
-1.94536e-07
3.49792e-06
-2.3498e-08
4.65952e-07
-1.7676e-09
7.09044e-08
-9.27005e-09
1.27554e-08
-4.21475e-09
9.6482e-09
-2.33651e-09
4.58362e-07
-6.61734e-07
6.01663e-07
-9.90673e-07
4.97388e-09
-2.28106e-07
3.44342e-10
-1.06152e-09
3.89764e-11
-7.05854e-11
3.17272e-11
-1.66265e-11
2.34102e-11
-1.17746e-12
4.64526e-10
9.51031e-13
6.71974e-11
1.53775e-09
5.11228e-06
1.35481e-24
3.1483e-06
7.00344e-24
4.34096e-06
-4.69047e-22
4.48008e-06
-6.10363e-20
3.82016e-06
-4.73944e-18
3.89929e-06
-2.57817e-16
2.05552e-06
-1.49157e-15
2.20393e-07
-3.302e-14
2.58828e-08
-1.54929e-12
2.48413e-09
-8.42652e-11
1.64945e-09
-1.50715e-09
2.84195e-09
-9.84061e-09
3.90147e-09
-3.93656e-09
4.44987e-09
-2.30315e-09
5.1981e-07
-7.17651e-07
5.29063e-07
-8.3239e-07
9.60666e-09
-2.54273e-07
2.25948e-10
1.0007e-09
2.37589e-11
1.63113e-11
3.90372e-12
-4.52609e-12
1.56047e-12
-2.05879e-13
1.98943e-10
-2.19702e-14
-9.7918e-12
1.86914e-09
-1.61311e-25
1.42522e-23
-1.59914e-24
3.94668e-23
1.46986e-23
-1.35778e-22
2.70956e-21
-1.86912e-20
2.89563e-19
-1.52444e-18
1.5603e-17
-8.82264e-17
1.5772e-16
-3.97358e-16
4.11958e-15
-2.73891e-14
2.08193e-13
-1.73907e-12
3.02778e-11
-1.1366e-10
2.27936e-09
-3.68962e-09
7.9566e-09
-1.62191e-08
9.84457e-09
-6.04861e-09
1.10288e-08
-3.13207e-09
3.88317e-07
-2.90172e-07
4.24439e-07
-7.00062e-07
4.35973e-09
-1.88617e-07
5.96523e-11
2.85142e-09
6.31013e-12
3.23241e-11
3.74095e-13
-2.22207e-13
1.37996e-13
-2.7644e-14
9.12579e-14
-5.33538e-14
-1.08951e-11
7.78513e-10
-7.90342e-25
2.79324e-23
-6.44397e-24
7.24052e-23
6.18756e-23
-2.24026e-22
7.17356e-21
-2.8062e-20
5.67971e-19
-2.30069e-18
4.74517e-17
-1.91184e-16
7.28329e-16
-1.17554e-15
1.02033e-13
-1.25484e-13
6.26241e-12
-7.84383e-12
4.16864e-10
-5.24879e-10
1.21809e-08
-1.54002e-08
4.54103e-08
-1.54181e-07
3.6257e-08
-6.2587e-08
3.74483e-08
-4.25956e-09
2.67819e-07
-5.80392e-08
2.93066e-07
-5.38564e-07
-1.01158e-09
-3.75089e-08
-2.34687e-11
1.72658e-09
2.5574e-13
6.20287e-12
3.3721e-14
-1.11575e-14
8.46584e-15
-3.68114e-14
1.93171e-13
-2.95935e-13
-1.95502e-11
2.27687e-11
-1.46713e-24
4.71401e-23
-8.74008e-24
7.35353e-23
3.15903e-22
-2.12783e-21
4.97285e-20
-2.65797e-19
4.7949e-18
-2.17787e-17
2.70696e-16
-1.41602e-15
7.66705e-15
-8.40096e-15
6.18981e-13
-7.63382e-13
3.63377e-11
-4.31502e-11
2.43762e-09
-2.91838e-09
4.52723e-08
-1.28085e-07
9.41167e-08
-2.0562e-07
5.45912e-08
-1.38278e-07
3.69576e-08
-8.9935e-10
2.54374e-07
-2.70907e-08
1.06755e-07
-2.56149e-07
-1.63774e-09
9.36991e-09
-6.15079e-12
9.48153e-11
-1.09566e-14
5.20841e-14
-1.58624e-14
-1.7221e-14
9.47718e-15
-7.31201e-14
3.89442e-13
-7.14706e-13
-7.16737e-11
4.71149e-11
-2.28668e-24
8.40284e-23
-5.54884e-24
-2.58883e-23
1.56553e-21
-1.41095e-20
2.22072e-19
-1.49531e-18
1.47905e-17
-7.32953e-17
4.84122e-16
-2.14217e-15
2.97771e-14
-3.53284e-14
3.73488e-12
-3.08351e-12
2.13652e-10
-2.54771e-10
1.26703e-08
-1.53506e-08
2.3738e-08
-2.19752e-07
1.81767e-08
-1.90916e-07
1.48982e-08
-1.25976e-07
1.23674e-08
-1.14564e-08
3.07344e-08
-4.25077e-08
-8.55556e-09
-1.49447e-09
-9.0853e-11
9.13951e-10
-1.02968e-13
4.17325e-12
-4.63585e-14
5.71511e-15
-3.84067e-14
-3.6142e-14
7.33287e-13
-5.61164e-13
1.68932e-11
-1.54081e-11
-2.20945e-10
5.32201e-11
-2.58446e-24
1.54506e-22
3.70271e-24
-1.4961e-22
3.00666e-21
-6.54481e-20
3.51356e-19
-6.26679e-18
1.284e-17
-1.89688e-16
3.57018e-16
-1.86653e-15
1.84998e-14
-6.11815e-14
1.73645e-12
-3.31586e-12
3.70393e-11
-2.14551e-10
-1.46379e-08
-3.05142e-09
-4.19831e-08
-1.32501e-07
-5.97433e-08
-1.64277e-07
-2.5398e-08
-1.51298e-07
-6.43211e-08
-4.49591e-08
-7.53922e-08
-5.83013e-10
-8.76553e-10
1.16599e-08
-4.24112e-12
4.26362e-11
-1.13988e-13
1.02348e-13
-1.20457e-13
6.99371e-16
-8.31768e-14
-6.03522e-14
1.17277e-12
-1.16142e-12
1.40058e-11
-1.77419e-11
-2.14525e-10
1.00911e-10
-1.42484e-24
2.73128e-22
1.9294e-24
-6.77357e-22
-1.12551e-21
-1.45472e-19
-9.54008e-19
-1.62862e-17
-1.74459e-17
-5.13733e-16
5.23248e-16
-2.75775e-15
-5.28223e-14
-6.68421e-15
-5.04598e-12
-2.78157e-14
-2.19112e-10
-4.13329e-13
-3.2593e-09
-2.04183e-12
-5.10335e-08
-1.32621e-11
-7.7462e-08
-3.87555e-11
-1.01247e-07
-7.22459e-11
-1.44409e-08
-1.22677e-10
-6.54173e-09
-1.07209e-10
-4.19829e-11
1.39003e-10
-1.6447e-13
8.95758e-13
-6.69293e-14
8.75578e-16
-1.15591e-14
-1.7679e-15
-2.99097e-14
-5.18413e-14
-1.90518e-13
-8.31428e-13
-5.28138e-12
-1.0935e-11
-1.20981e-10
-9.14833e-11
-1.0165e-23
4.64352e-22
-6.34911e-23
-9.39954e-22
-2.93333e-20
-1.63704e-19
-9.60178e-18
-1.93567e-17
-2.2469e-16
-9.01222e-16
-8.8631e-16
-5.74091e-15
-1.69262e-15
-9.33999e-15
-1.20808e-14
-1.54829e-14
-1.97034e-13
-1.33356e-13
-7.58291e-13
-7.02898e-13
-6.16835e-12
-7.08896e-12
-1.55284e-11
-2.423e-11
-3.41187e-11
-3.41527e-11
-8.84764e-11
-2.32692e-11
-1.39903e-10
-1.52251e-13
-9.39349e-13
9.91173e-13
-2.46596e-14
9.16823e-16
-2.64368e-14
-1.504e-16
-3.01398e-14
-1.48921e-15
-1.12689e-13
-1.78007e-14
-1.05829e-12
-2.23025e-13
-1.28642e-11
-2.5934e-12
-2.35244e-11
-1.35563e-10
-3.45845e-23
7.71472e-22
-1.61761e-21
6.43075e-22
-4.43421e-20
-1.14272e-19
-1.79517e-17
-1.23782e-17
-5.99044e-16
-7.08766e-16
-1.71776e-15
-4.60184e-15
-2.80289e-15
-7.64106e-15
-7.38696e-15
-1.06374e-14
-3.85074e-14
-8.06091e-14
2.33009e-14
-7.78887e-13
-6.26545e-12
-7.23626e-12
-4.01473e-11
-5.50968e-11
-6.00928e-11
-6.36734e-11
-8.40973e-13
-2.71608e-11
-9.93229e-13
-1.76279e-18
-2.03232e-15
-3.04112e-17
-1.15887e-15
-1.04034e-17
-2.63529e-15
-4.86596e-17
-1.06575e-14
-3.46739e-16
-4.7192e-14
-2.82824e-15
-4.25967e-13
-3.05132e-14
-4.39426e-12
-3.35057e-13
-2.48583e-12
-3.77408e-11
1.9883e-23
1.14045e-21
-1.12877e-20
1.3855e-20
-1.23384e-19
-2.08126e-21
-1.22361e-17
-1.00959e-18
-4.10428e-16
-7.40319e-17
-1.23265e-15
-8.46384e-16
-2.16359e-15
-2.52092e-15
-4.62372e-15
-8.77396e-15
-1.72744e-14
-5.05458e-14
-5.74996e-13
-1.24864e-13
-2.99786e-11
-2.25144e-13
-1.0391e-10
-1.6681e-13
-7.76898e-11
-2.90598e-14
-2.88176e-17
-7.17663e-17
-6.4721e-18
-3.15062e-17
-3.7773e-17
-7.06869e-19
-5.1251e-17
-2.33241e-18
-3.92033e-16
-7.06767e-18
-2.3725e-15
-3.82993e-17
-1.01471e-14
-2.63576e-16
-6.30792e-14
-2.14893e-15
-5.01989e-13
-1.96574e-14
-1.03231e-13
-4.38268e-12
5.28468e-22
1.03528e-21
-8.48321e-23
1.77748e-20
-1.10926e-19
1.0873e-19
-1.30812e-18
1.87536e-19
-3.55769e-17
-4.75206e-19
-1.86872e-16
-1.84613e-17
-8.95703e-16
-3.72316e-16
-1.18471e-14
-4.69326e-15
-5.14699e-14
-3.91834e-14
-5.11955e-14
-1.1441e-13
-4.06745e-14
-1.80193e-13
-4.09573e-14
-1.59808e-13
-1.59514e-17
-5.88506e-14
-8.73138e-17
-4.46376e-18
-1.0995e-18
-1.9688e-18
-2.57373e-18
-1.71368e-19
-8.32576e-18
-5.99482e-19
-3.51045e-17
-1.50013e-18
-2.31576e-16
-3.88581e-18
-1.62369e-15
-2.01448e-17
-8.68795e-15
-1.28732e-16
-5.20918e-14
-6.58893e-16
-2.42112e-16
-3.87398e-13
7.73435e-22
4.22159e-22
9.69434e-21
7.00322e-21
2.58225e-20
4.02997e-20
-1.38455e-19
4.63559e-20
-2.78061e-19
-3.21308e-19
-1.36732e-17
-1.32788e-17
-2.59416e-16
-3.18767e-16
-5.24813e-15
-2.27487e-15
-5.46522e-14
-3.55187e-15
-9.45012e-14
-3.95169e-15
-9.47766e-14
-1.42119e-15
-6.23674e-14
-1.43247e-15
-3.09312e-17
-2.43469e-16
-6.04993e-18
-3.23472e-17
-3.04783e-19
-1.06641e-17
-5.37192e-19
-8.76219e-20
-2.01407e-18
-1.79039e-19
-4.87135e-18
-3.34467e-19
-1.84284e-17
-4.03647e-19
-1.40268e-16
-1.20952e-18
-1.17338e-15
-6.16909e-18
-1.24992e-14
-8.41481e-18
5.16798e-16
-8.36853e-14
3.32142e-22
8.46566e-23
3.90213e-21
1.39615e-21
6.90167e-21
8.1652e-21
-9.83576e-20
1.35111e-20
-3.76492e-19
-4.31738e-20
-1.91045e-17
-1.35196e-18
-3.98388e-16
-5.07436e-17
-1.56699e-15
-8.95403e-16
-1.74202e-15
-2.75163e-15
-1.46639e-15
-3.4903e-15
-4.86308e-16
-3.24203e-15
-9.57824e-17
-2.24092e-15
-6.13556e-17
-3.6709e-16
-3.26031e-17
-4.07132e-17
-6.28477e-20
-1.62482e-18
-7.54887e-20
1.9048e-19
-3.45732e-19
1.83701e-19
-6.49269e-19
1.08976e-19
-1.44568e-18
-7.05296e-21
-8.29952e-18
-5.14834e-20
-7.60542e-17
-2.2235e-19
-1.16626e-15
6.98754e-19
5.30355e-17
-1.09692e-14
6.99714e-23
-3.2544e-29
8.33935e-22
-6.22043e-27
2.11566e-21
-5.79522e-25
-9.24711e-21
-3.55562e-23
-5.0589e-20
-1.83192e-21
-1.36204e-18
-5.24917e-20
-5.92195e-17
-1.57107e-18
-9.17244e-16
-5.73687e-17
-2.20204e-15
-6.84223e-16
-2.47856e-15
-1.41195e-15
-2.09465e-15
-1.83863e-15
-9.39173e-16
-1.86742e-15
-1.427e-16
-6.04911e-16
-6.07168e-18
-8.05603e-17
4.25385e-19
-3.5045e-18
5.18357e-19
5.20301e-19
3.98129e-19
4.6204e-19
-4.9271e-21
2.27622e-19
-2.91701e-19
4.90397e-20
-3.61914e-19
-1.72423e-21
-3.332e-18
-7.37559e-21
-4.66082e-17
5.45064e-20
2.76452e-18
-7.50677e-16
-3.24922e-29
-5.18613e-32
-6.24267e-27
-1.02474e-29
-5.84775e-25
-9.8972e-28
-3.60779e-23
-6.3144e-26
-1.86557e-21
-1.86465e-24
-5.42918e-20
-5.63019e-23
-1.63073e-18
-1.71833e-21
-5.87933e-17
-5.25677e-20
-6.63293e-16
-1.63554e-18
-1.3782e-15
-1.12017e-17
-1.47932e-15
-2.25546e-17
-1.00643e-15
-2.28601e-17
-1.99123e-16
-8.21408e-18
-1.23999e-17
-1.33562e-18
1.08221e-18
1.21345e-19
1.21106e-18
3.21629e-19
7.78421e-19
2.92965e-19
2.33484e-19
1.59115e-19
-1.18703e-20
3.86877e-20
-1.30579e-20
-4.98731e-23
-1.32522e-19
-2.27314e-22
-1.98461e-18
2.72923e-21
1.17396e-19
-3.60847e-17
-5.15969e-32
-1.85186e-34
-1.02464e-29
-3.83819e-32
-9.9482e-28
-3.89195e-30
-6.38057e-26
-2.61221e-28
-1.92397e-24
-8.05642e-27
-5.79381e-23
-2.62641e-25
-1.76927e-21
-8.56607e-24
-6.63002e-20
-2.76384e-22
-1.66736e-18
-8.45408e-21
-7.38102e-18
-6.89483e-20
-1.01844e-17
-2.06244e-19
-6.84642e-18
-3.20706e-19
-1.8067e-18
-3.28389e-19
1.93349e-19
-1.62093e-19
6.314e-19
1.88016e-20
7.24471e-19
6.80082e-20
5.15376e-19
8.51577e-20
1.76623e-19
5.79002e-20
-3.61042e-22
1.62509e-20
-4.84259e-22
-1.80267e-24
-4.63092e-21
-6.63881e-24
-8.13632e-20
1.03149e-22
4.52222e-21
-1.47352e-18
-1.84933e-34
-1.91317e-37
-3.85137e-32
-4.19088e-35
-3.92502e-30
-4.50881e-33
-2.64782e-28
-3.21872e-31
-8.41305e-27
-1.03992e-29
-2.70716e-25
-3.74078e-28
-8.84198e-24
-1.30072e-26
-3.14745e-22
-3.85337e-25
-7.85983e-21
-1.16179e-23
-4.96748e-20
-3.33791e-22
-1.26679e-19
-2.77008e-21
-1.78533e-19
-7.51516e-21
-1.60307e-19
-9.45357e-21
2.85941e-20
-4.75135e-21
1.26937e-19
4.05735e-21
1.99849e-19
1.10797e-20
1.78382e-19
1.48973e-20
7.10689e-20
1.19791e-20
-1.01837e-23
4.06394e-21
-1.40421e-23
-6.60182e-26
-1.4233e-22
-1.78306e-25
-3.12161e-21
3.18669e-24
1.4989e-22
-5.77163e-20
-1.92514e-37
1.19629e-39
-4.22233e-35
8.2876e-38
-4.54434e-33
4.7848e-37
-3.25272e-31
-1.16223e-33
-1.07262e-29
-5.42073e-32
-3.83681e-28
-2.05076e-30
-1.33516e-26
-6.73839e-29
-3.99143e-25
-1.95747e-27
-1.4254e-23
-6.27239e-26
-3.92221e-22
-2.13941e-24
-2.45542e-21
-1.18434e-23
-4.84251e-21
-1.16472e-23
-4.6212e-21
3.21598e-23
5.89476e-21
1.76148e-22
1.96937e-20
4.99666e-22
3.32393e-20
1.00871e-21
3.50754e-20
1.49601e-21
1.69344e-20
1.44752e-21
-2.4187e-25
6.24076e-22
-3.85051e-25
2.1287e-26
-3.77724e-24
-4.23764e-27
-1.07108e-22
8.13096e-26
4.34894e-24
-1.98131e-21
4.26574e-39
6.04485e-39
4.99832e-38
7.78588e-37
-4.63341e-35
4.78323e-35
-3.0927e-33
1.87888e-33
-1.09754e-31
5.24538e-32
-3.25702e-30
1.0965e-30
-8.8283e-29
1.76421e-29
-2.26732e-27
2.21565e-28
-1.18219e-25
2.18568e-27
-4.00133e-24
1.69958e-26
-4.5709e-24
1.04856e-25
3.12666e-23
5.20323e-25
2.03406e-22
2.11702e-24
6.92339e-22
7.18582e-24
1.70538e-21
2.04198e-23
3.16734e-21
4.75165e-23
4.01853e-21
8.50894e-23
2.45594e-21
1.02332e-22
1.41428e-25
5.881e-23
-8.16921e-26
5.8905e-27
-1.11233e-25
-1.22475e-28
-3.29207e-24
1.67991e-27
1.08748e-25
-6.02017e-23
3.89577e-38
6.41014e-40
4.85537e-36
6.08503e-38
2.90621e-34
2.73185e-36
1.10391e-32
7.84555e-35
2.95852e-31
1.61771e-33
5.89064e-30
2.54966e-32
8.9523e-29
3.19422e-31
1.05344e-27
3.26812e-30
9.68569e-27
2.78611e-29
7.03269e-26
2.0104e-28
4.10208e-25
1.24327e-27
1.96576e-24
6.65043e-27
7.90349e-24
3.09134e-26
2.68786e-23
1.24555e-25
7.61164e-23
4.29104e-25
1.70363e-22
1.22545e-24
2.67682e-22
2.73154e-24
2.17411e-22
4.21609e-24
3.63326e-26
3.32962e-24
-1.61371e-27
8.13656e-28
-2.22385e-27
-2.42201e-30
-7.40262e-26
2.82846e-29
2.32227e-27
-1.61259e-24
2.92802e-39
1.67535e-42
2.6671e-37
1.64526e-40
1.16675e-35
7.67446e-39
3.27161e-34
2.30537e-37
6.60549e-33
5.01444e-36
1.02299e-31
8.42417e-35
1.26492e-30
1.13895e-33
1.28435e-29
1.27561e-32
1.09384e-28
1.2095e-31
7.94511e-28
9.87481e-31
4.98472e-27
7.03344e-30
2.72298e-26
4.41025e-29
1.29664e-25
2.44416e-28
5.3337e-25
1.1933e-27
1.84933e-24
5.06188e-27
5.13994e-24
1.80991e-26
1.03277e-23
5.1417e-26
1.14629e-23
1.02998e-25
4.61207e-27
1.07123e-25
-2.70645e-29
6.79937e-29
-3.73387e-29
-4.07911e-32
-1.31137e-27
3.95615e-31
4.25831e-29
-3.80206e-26
7.52648e-42
2.88865e-45
7.1273e-40
2.91642e-43
3.26087e-38
1.41235e-41
9.64218e-37
4.4585e-40
2.07385e-35
1.03341e-38
3.46311e-34
1.8789e-37
4.68242e-33
2.79564e-36
5.28115e-32
3.5066e-35
5.08159e-31
3.78936e-34
4.2441e-30
3.5849e-33
3.11578e-29
3.00198e-32
2.0255e-28
2.23823e-31
1.16647e-27
1.48553e-30
5.89603e-27
8.70746e-30
2.5537e-26
4.42465e-29
9.02099e-26
1.88274e-28
2.34313e-25
6.30063e-28
3.40384e-25
1.46676e-27
3.49842e-28
1.74859e-27
-3.85172e-31
3.59178e-30
-5.30609e-31
-5.8583e-34
-1.93821e-29
4.53231e-33
6.76099e-31
-7.83487e-28
1.253e-44
5.23704e-49
1.23278e-42
6.24877e-47
5.92723e-41
3.58916e-45
1.8672e-39
1.35233e-43
4.34419e-38
3.773e-42
7.97793e-37
8.34267e-41
1.20697e-35
1.52716e-39
1.54982e-34
2.38439e-38
1.72585e-33
3.24094e-37
1.69232e-32
3.8853e-36
1.47508e-31
4.13509e-35
1.14655e-30
3.90896e-34
7.91371e-30
3.2636e-33
4.78271e-29
2.37616e-32
2.4598e-28
1.47571e-31
1.02061e-27
7.53506e-31
3.06911e-27
2.96841e-30
5.07241e-27
7.98212e-30
1.66362e-29
1.08205e-29
-4.65808e-33
1.2036e-31
-6.45144e-33
-7.19665e-36
-2.43029e-31
4.23486e-35
9.35701e-33
-1.40707e-29
2.488e-48
8.35784e-55
2.9048e-46
1.65382e-52
1.66699e-44
1.56508e-50
6.31972e-43
9.6331e-49
1.78736e-41
4.33631e-47
4.03574e-40
1.52107e-45
7.59409e-39
4.32326e-44
1.22536e-37
1.02145e-42
1.72728e-36
2.0408e-41
2.15008e-35
3.48601e-40
2.37302e-34
5.12149e-39
2.317e-33
6.47944e-38
1.9834e-32
7.03148e-37
1.46246e-31
6.47786e-36
9.00668e-31
4.96938e-35
4.38675e-30
3.07032e-34
1.51768e-29
1.44161e-33
2.83241e-29
4.61031e-33
4.95894e-31
7.83319e-33
-4.77465e-35
2.50657e-33
-6.66593e-35
-7.50612e-38
-2.61027e-33
3.06835e-37
1.13663e-34
-2.20416e-31
6.00706e-54
2.14968e-58
1.15574e-51
3.82751e-56
1.08342e-49
3.26977e-54
6.62524e-48
1.82673e-52
2.97128e-46
7.52799e-51
1.04108e-44
2.4465e-49
2.96233e-43
6.54478e-48
7.02008e-42
1.48484e-46
1.40864e-40
2.91942e-45
2.4179e-39
5.05321e-44
3.56734e-38
7.78369e-43
4.52161e-37
1.07358e-41
4.89077e-36
1.32763e-40
4.44738e-35
1.46563e-39
3.30772e-34
1.42784e-38
1.91504e-33
1.20142e-37
7.84813e-33
8.41018e-37
1.82399e-32
4.58139e-36
9.0637e-33
1.70224e-35
-4.12942e-37
3.09497e-35
-5.834e-37
-6.62868e-40
-2.4139e-35
1.54721e-39
1.21969e-36
-3.0198e-33
1.24246e-57
1.92359e-62
2.15894e-55
4.32147e-60
1.83714e-53
4.66009e-58
1.02826e-51
3.29609e-56
4.2708e-50
1.72646e-54
1.40765e-48
7.16064e-53
3.84344e-47
2.45407e-51
8.95593e-46
7.15442e-50
1.81937e-44
1.8107e-48
3.27104e-43
4.03426e-47
5.25583e-42
7.98215e-46
7.58273e-41
1.40817e-44
9.81572e-40
2.21329e-43
1.13189e-38
3.08042e-42
1.14444e-37
3.74779e-41
9.8547e-37
3.89729e-40
6.85416e-36
3.33459e-39
3.46389e-35
2.19535e-38
9.66302e-35
9.74881e-38
-2.98767e-39
2.09785e-37
-4.28538e-39
-4.87119e-42
-1.8036e-37
2.78599e-42
1.16186e-38
-3.62427e-35
1.21642e-61
2.30717e-67
2.67672e-59
7.59638e-65
2.88665e-57
1.18684e-62
2.05381e-55
1.21024e-60
1.08845e-53
9.09734e-59
4.5939e-52
5.38266e-57
1.61078e-50
2.61121e-55
4.82779e-49
1.06728e-53
1.26131e-47
3.74492e-52
2.91009e-46
1.14252e-50
5.97444e-45
3.05504e-49
1.09432e-43
7.18624e-48
1.78382e-42
1.48599e-46
2.56551e-41
2.68555e-45
3.2008e-40
4.18942e-44
3.36198e-39
5.51832e-43
2.81739e-38
5.9109e-42
1.69303e-37
4.81728e-41
5.53583e-37
2.62065e-40
-1.77439e-41
6.84249e-40
-2.59747e-41