/*--------------------------------*- C++ -*----------------------------------*\
| =========                 |                                                 |
| \\      /  F ield         | OpenFOAM: The Open Source CFD Toolbox           |
|  \\    /   O peration     | Version:  2206                                  |
|   \\  /    A nd           | Website:  www.openfoam.com                      |
|    \\/     M anipulation  |                                                 |
\*---------------------------------------------------------------------------*/
FoamFile
{
    version     2.0;
    format      ascii;
    arch        "LSB;label=32;scalar=64";
    class       volScalarField;
    location    "0.2";
    object      p;
}
// * * * * * * * * * * * * * * * * * * * * * * * * * * * * * * * * * * * * * //

dimensions      [1 -1 -2 0 0 0 0];

internalField   nonuniform List<scalar> 
2268
(
2116.21
2124.2
2127.14
2126.19
2123.3
2120.11
2117.27
2114.93
2113.29
2112.7
2113.85
2117.96
2126.96
2143.71
2172.25
2218.57
2289.02
2387.38
2511.72
2644.02
2747.27
2774.67
2819.82
2055.98
2063.87
2066.74
2065.74
2062.83
2059.62
2056.72
2054.29
2052.51
2051.73
2052.63
2056.41
2065
2081.17
2108.79
2152.22
2216.52
2307.67
2426.95
2561.91
2676.1
2707.98
2775.37
1994.37
2002.1
2004.8
2003.7
2000.76
1997.5
1994.48
1991.85
1989.78
1988.61
1989.01
1992.15
1999.9
2014.96
2040.96
2082.29
2143.88
2228.9
2337.29
2460.33
2582.87
2661.63
2770.89
1931.42
1938.91
1941.37
1940.1
1937.1
1933.75
1930.56
1927.63
1925.12
1923.35
1922.99
1925.17
1931.66
1945.06
1968.86
2007.33
2064.98
2144.48
2245.32
2359.02
2481.57
2596.44
2741.45
1867.15
1874.34
1876.48
1874.98
1871.88
1868.42
1864.97
1861.62
1858.51
1855.95
1854.56
1855.42
1860.21
1871.39
1892.3
1927.05
1979.91
2053.45
2147.75
2255.91
2374.63
2497.04
2655.99
1801.6
1808.47
1810.2
1808.4
1805.17
1801.53
1797.75
1793.85
1789.96
1786.37
1783.67
1782.84
1785.45
1793.78
1811.01
1841.13
1888.34
1955.15
2042.1
2143.84
2254.29
2364.36
2495.1
1734.84
1741.34
1742.53
1740.38
1736.98
1733.13
1728.92
1724.33
1719.5
1714.67
1710.37
1707.49
1707.43
1712.26
1724.94
1749.34
1789.62
1848.4
1926.44
2018.52
2113.94
2195.69
2238.34
1666.95
1672.96
1673.49
1670.92
1667.35
1663.25
1658.5
1653.11
1647.16
1640.89
1634.75
1629.51
1626.37
1627.13
1634.48
1652.06
1683.94
1732.7
1799.59
1877.88
1950.16
1993.49
1859.62
5.9806
5.95945
5.93871
5.91715
5.89315
5.86582
5.83383
5.79689
5.75559
5.71129
5.66567
5.62048
5.57744
5.53799
5.5034
5.47462
5.45244
5.43739
5.42974
5.92527
5.90091
5.87994
5.85865
5.83485
5.80773
5.77579
5.73876
5.69725
5.65264
5.60671
5.56121
5.51791
5.47824
5.44347
5.41455
5.39227
5.37717
5.3695
5.87216
5.84309
5.82139
5.80057
5.77713
5.75041
5.71861
5.6814
5.63944
5.59424
5.54767
5.50155
5.4577
5.41758
5.38243
5.35324
5.33076
5.31554
5.3078
5.82344
5.78564
5.76273
5.74275
5.71994
5.69393
5.66235
5.62484
5.5822
5.53609
5.48853
5.44148
5.39679
5.35598
5.32028
5.29069
5.26789
5.25248
5.24466
5.77905
5.72765
5.70387
5.68497
5.66333
5.63834
5.60708
5.56916
5.52557
5.4782
5.42929
5.38097
5.33515
5.29342
5.25699
5.22683
5.20364
5.18798
5.18004
5.74136
5.66783
5.64439
5.62712
5.60726
5.58373
5.55292
5.51446
5.4696
5.42058
5.36994
5.32
5.27277
5.22986
5.1925
5.16165
5.13798
5.12201
5.11393
5.71245
5.60195
5.58397
5.56904
5.55175
5.53027
5.50005
5.46085
5.41434
5.36324
5.31046
5.25852
5.20957
5.16524
5.12679
5.09512
5.07088
5.05454
5.04629
5.69777
5.52511
5.52264
5.51116
5.49708
5.47816
5.44867
5.40846
5.35986
5.30618
5.25079
5.19647
5.1455
5.09952
5.05981
5.0272
5.0023
4.98553
4.97708
1559.02
1564.08
1563.6
1560.36
1556.36
1551.67
1545.91
1538.97
1530.96
1522.03
1512.49
1502.85
1493.97
1487.17
1484.58
1489.6
1506.27
1535.7
1581.2
1629.84
1648.11
1578.85
1004.11
1407.6
1411.32
1409.36
1405.01
1400.01
1393.88
1385.99
1376.12
1364.26
1350.37
1334.38
1316.31
1296.19
1273.99
1250.73
1230.18
1218.98
1219.13
1221.62
1222.93
1195.07
1087.74
779.907
1252.43
1254.58
1250.91
1245.31
1238.96
1230.84
1220.13
1206.53
1189.84
1169.66
1145.54
1116.58
1081.45
1037.86
984.432
923.096
863.671
806.336
765.89
707.285
654.108
631.02
578.885
1094.27
1094.7
1089.27
1082.29
1074.2
1063.54
1049.36
1031.27
1008.73
980.992
947.021
904.627
851.554
781.38
685.178
558.825
412.737
224.077
67.2278
41.3479
45.6195
84.993
154.412
933.931
932.576
925.465
916.99
906.82
893.14
874.982
851.735
822.516
786.34
741.413
685.156
614.244
509.888
354.579
174.945
53.5087
7.54247
-4.19489
-6.38404
-4.92509
-1.87262
4.16849
772.141
768.941
760.336
750.309
737.813
720.858
698.48
669.783
633.767
589.238
533.657
464.126
369.179
224.867
71.1613
9.55252
-3.94784
-6.17349
-6.78907
-7.20727
-7.31322
-7.64236
-8.18127
609.962
604.753
594.973
583.515
568.766
548.732
522.433
488.619
446.475
393.253
325.239
237.353
125.719
26.1584
-0.616167
-5.01158
-6.36353
-6.97109
-7.30356
-7.66091
-8.14409
-8.77611
-9.41291
449.299
442.3
431.866
419.031
402.288
379.628
349.806
310.478
261.08
197.839
119.398
44.9246
4.23292
-4.40446
-4.71021
-5.97361
-6.82231
-7.30608
-7.65957
-8.09747
-8.68005
-9.3306
-9.88286
290.21
281.8
270.894
255.954
236.962
211.755
179.457
134.791
87.3875
40.7374
7.73154
-5.24562
-5.2017
-4.76853
-4.92888
-6.3026
-7.29116
-7.70572
-7.9663
-8.33929
-8.88519
-9.48459
-9.94958
133.733
121.571
111.506
97.7881
81.5552
62.2956
42.2069
17.458
2.64908
-5.03386
-5.41435
-5.26392
-5.2951
-5.21556
-5.27433
-6.80961
-7.79313
-7.9994
-8.16754
-8.48321
-8.95
-9.44208
-9.85613
24.8635
13.2016
12.4861
8.90175
4.06965
-1.08577
-4.07399
-4.45651
-4.92835
-5.15463
-5.43077
-5.61951
-5.71577
-5.67704
-5.79311
-7.17345
-8.0715
-8.15621
-8.27101
-8.54239
-8.93949
-9.37175
-9.79638
-3.98759
-3.99137
-4.04215
-4.1253
-4.24489
-4.40169
-4.46416
-4.63902
-4.9404
-5.2819
-5.65365
-6.01483
-6.26301
-6.27168
-6.37884
-7.30341
-8.11354
-8.18925
-8.27748
-8.52495
-8.88501
-9.30595
-9.78229
-4.11529
-4.12169
-4.16735
-4.23628
-4.32926
-4.44575
-4.57039
-4.75371
-5.04097
-5.4415
-5.94421
-6.50604
-6.96424
-7.01683
-6.95995
-7.40604
-8.0724
-8.11328
-8.20352
-8.43696
-8.77911
-9.21468
-9.75454
-4.24707
-4.2571
-4.29379
-4.35254
-4.43099
-4.53205
-4.66319
-4.85354
-5.15924
-5.60932
-6.25806
-7.06454
-7.67022
-7.67596
-7.45735
-7.66718
-8.0146
-7.95751
-8.07187
-8.28702
-8.61483
-9.0643
-9.66394
-4.36893
-4.38883
-4.41678
-4.46481
-4.5322
-4.62319
-4.74896
-4.93481
-5.2496
-5.73053
-6.45741
-7.39251
-8.07702
-7.97105
-7.74213
-7.84679
-7.85335
-7.79467
-7.89256
-8.08656
-8.38586
-8.81596
-9.4507
-4.47872
-4.50037
-4.52463
-4.56652
-4.62605
-4.7083
-4.82338
-4.99028
-5.28463
-5.74375
-6.43494
-7.31086
-7.92653
-7.95772
-7.84928
-7.72511
-7.61241
-7.58178
-7.67443
-7.84591
-8.10611
-8.48671
-9.05378
-4.57877
-4.59789
-4.61964
-4.65722
-4.71036
-4.7836
-4.88374
-5.03158
-5.28079
-5.66837
-6.21207
-6.84225
-7.31209
-7.52505
-7.54785
-7.43312
-7.33035
-7.33489
-7.42073
-7.56796
-7.77732
-8.07682
-8.51292
-4.66836
-4.68234
-4.70373
-4.73749
-4.78528
-4.85039
-4.93767
-5.0624
-5.25971
-5.55869
-5.95023
-6.37743
-6.7239
-6.94671
-7.03172
-7.01645
-7.01282
-7.06038
-7.14286
-7.25763
-7.40588
-7.60384
-7.87291
-4.7467
-4.75751
-4.77756
-4.80828
-4.8515
-4.90971
-4.98624
-5.08985
-5.2401
-5.4569
-5.73655
-6.03499
-6.28889
-6.46765
-6.57027
-6.62454
-6.69458
-6.77282
-6.84765
-6.9267
-7.01227
-7.10839
-7.21164
-4.81538
-4.8246
-4.84288
-4.87087
-4.91
-4.96223
-5.02997
-5.11789
-5.23537
-5.39231
-5.58624
-5.79349
-5.98535
-6.14336
-6.26176
-6.35264
-6.43251
-6.4992
-6.55329
-6.59523
-6.62335
-6.63272
-6.60654
-4.87648
-4.88463
-4.90117
-4.92653
-4.96174
-5.00835
-5.06826
-5.14425
-5.24064
-5.36126
-5.50422
-5.65792
-5.80565
-5.93456
-6.04122
-6.12796
-6.19606
-6.24458
-6.27409
-6.28125
-6.26146
-6.20508
-6.09259
-4.93164
-4.93892
-4.95377
-4.9765
-5.00782
-5.04885
-5.10097
-5.16591
-5.24573
-5.34166
-5.45135
-5.56736
-5.67976
-5.78068
-5.86678
-5.93628
-5.98644
-6.0152
-6.0207
-5.99828
-5.94192
-5.84101
-5.67956
-4.98217
-4.98865
-5.00183
-5.02193
-5.04939
-5.08492
-5.12936
-5.18371
-5.24882
-5.32472
-5.40921
-5.4973
-5.58249
-5.65926
-5.72409
-5.77388
-5.8051
-5.81475
-5.79934
-5.75386
-5.67247
-5.54601
-5.36062
-5.0291
-5.03479
-5.0463
-5.06381
-5.0875
-5.11776
-5.15499
-5.19962
-5.25189
-5.31134
-5.37607
-5.44232
-5.50553
-5.56155
-5.60693
-5.63828
-5.65208
-5.64484
-5.6126
-5.55078
-5.45405
-5.31516
-5.12386
-5.07324
-5.07813
-5.08803
-5.103
-5.12309
-5.1484
-5.17904
-5.21503
-5.25622
-5.30195
-5.35059
-5.3993
-5.44465
-5.48322
-5.51183
-5.52726
-5.52621
-5.50521
-5.46052
-5.38811
-5.28348
-5.14123
-4.95487
-5.11527
-5.11938
-5.12772
-5.14027
-5.15698
-5.17773
-5.20243
-5.23083
-5.26256
-5.29686
-5.33232
-5.36677
-5.39751
-5.42166
-5.43637
-5.43872
-5.42569
-5.39422
-5.34107
-5.26275
-5.15574
-5.01629
-4.84055
-5.15579
-5.15916
-5.16603
-5.17631
-5.18987
-5.2065
-5.22593
-5.24779
-5.27154
-5.2964
-5.32113
-5.34398
-5.3628
-5.37522
-5.37871
-5.37068
-5.34854
-5.30966
-5.25131
-5.17071
-5.06522
-4.93236
-4.77001
-5.19533
-5.19802
-5.20352
-5.2117
-5.22238
-5.23531
-5.25014
-5.2664
-5.28349
-5.3006
-5.31664
-5.33018
-5.33947
-5.34253
-5.33722
-5.32133
-5.29266
-5.24897
-5.18809
-5.10792
-5.0066
-4.8825
-4.73459
-5.23435
-5.23643
-5.24066
-5.24692
-5.255
-5.26465
-5.27549
-5.287
-5.29856
-5.3094
-5.31851
-5.32468
-5.32651
-5.32233
-5.31039
-5.28883
-5.25583
-5.20958
-5.14833
-5.07055
-4.97497
-4.86073
-4.72727
-5.27322
-5.27475
-5.27784
-5.28237
-5.28814
-5.29491
-5.3023
-5.30981
-5.31684
-5.32264
-5.32631
-5.32681
-5.32295
-5.31341
-5.29671
-5.27137
-5.2359
-5.18885
-5.1289
-5.0549
-4.96606
-4.86192
-4.74238
-5.31222
-5.31327
-5.31535
-5.31836
-5.32212
-5.3264
-5.33085
-5.33502
-5.33835
-5.34015
-5.33961
-5.33584
-5.32785
-5.31451
-5.29467
-5.26712
-5.23068
-5.18422
-5.12677
-5.05749
-4.97589
-4.88179
-4.77537
-5.35154
-5.35218
-5.35339
-5.35509
-5.35714
-5.35932
-5.36132
-5.36274
-5.36309
-5.36175
-5.35803
-5.35116
-5.34027
-5.32448
-5.30282
-5.27436
-5.23816
-5.19337
-5.13925
-5.07526
-5.00112
-4.91681
-4.8226
-5.39134
-5.39162
-5.39209
-5.39271
-5.39335
-5.3938
-5.3938
-5.39302
-5.39102
-5.38728
-5.38123
-5.37218
-5.35944
-5.34225
-5.31987
-5.29153
-5.25654
-5.21423
-5.16408
-5.10573
-5.03905
-4.96413
-4.88128
-5.43172
-5.4317
-5.4316
-5.43134
-5.43085
-5.42992
-5.42836
-5.42586
-5.42208
-5.41658
-5.40888
-5.39844
-5.38465
-5.36693
-5.34467
-5.31729
-5.28422
-5.245
-5.19926
-5.14676
-5.08745
-5.0215
-4.94923
-5.47278
-5.47254
-5.47197
-5.47105
-5.46968
-5.4677
-5.46496
-5.4612
-5.45612
-5.44941
-5.44067
-5.42946
-5.4153
-5.39773
-5.37626
-5.35045
-5.31988
-5.28419
-5.24313
-5.19658
-5.14453
-5.08714
-5.02476
-5.51457
-5.51415
-5.51325
-5.51183
-5.50982
-5.50709
-5.50351
-5.49888
-5.49297
-5.48553
-5.47626
-5.46481
-5.45082
-5.43392
-5.41377
-5.39002
-5.36234
-5.3305
-5.29432
-5.25375
-5.2088
-5.1596
-5.10655
-5.5571
-5.55655
-5.5554
-5.55364
-5.55119
-5.54796
-5.54384
-5.53869
-5.53234
-5.52459
-5.51523
-5.50399
-5.49062
-5.47485
-5.45641
-5.43507
-5.4106
-5.38282
-5.35164
-5.31704
-5.27907
-5.2379
-5.19355
-5.60039
-5.59977
-5.59845
-5.59647
-5.59374
-5.59022
-5.58581
-5.58042
-5.57394
-5.56623
-5.55714
-5.54648
-5.5341
-5.5198
-5.50341
-5.48476
-5.46371
-5.44015
-5.41403
-5.38537
-5.3542
-5.32066
-5.28477
-5.64455
-5.64391
-5.6425
-5.64039
-5.63751
-5.63384
-5.62933
-5.62393
-5.61756
-5.61015
-5.6016
-5.59182
-5.5807
-5.56815
-5.55404
-5.53829
-5.52082
-5.50158
-5.48056
-5.45778
-5.43328
-5.40715
-5.37943
-5.68996
-5.68933
-5.68788
-5.68571
-5.68279
-5.67909
-5.67461
-5.66933
-5.66323
-5.65629
-5.64847
-5.63974
-5.63006
-5.6194
-5.60772
-5.59499
-5.58118
-5.5663
-5.55036
-5.53341
-5.51549
-5.49663
-5.47685
-5.73604
-5.73548
-5.73406
-5.73191
-5.72901
-5.72538
-5.72104
-5.71602
-5.71034
-5.70402
-5.69708
-5.68956
-5.68147
-5.67284
-5.6637
-5.65407
-5.64399
-5.63349
-5.62262
-5.61145
-5.60003
-5.58838
-5.57643
-5.77813
-5.77788
-5.77657
-5.77452
-5.77177
-5.76837
-5.76438
-5.75986
-5.75488
-5.74951
-5.74381
-5.73787
-5.73176
-5.72557
-5.71937
-5.71324
-5.70725
-5.70147
-5.69596
-5.6908
-5.68605
-5.68173
-5.67768
-46.2856
-5.14947
0.61947
3.98846
294.208
58.5746
-48.2208
-19.5376
402.187
238.546
147.021
81.2852
156.867
123.863
93.7215
87.7997
11.4845
16.4994
14.6622
3.54062
-8.41508
-8.68808
-7.63806
-23.7082
-9.54156
-9.53684
-8.54713
-8.29696
-9.99111
-10.0285
-10.1368
-9.11152
-10.1319
-10.2785
-10.6457
-10.5134
-10.1402
-10.3617
-10.7468
-11.0142
-10.1817
-10.4582
-10.8166
-11.1823
-10.2357
-10.5487
-10.8797
-11.2343
-10.2689
-10.6015
-10.8933
-11.1615
-10.2805
-10.6479
-10.9149
-11.0795
-10.0817
-10.4588
-10.8141
-11.2588
-9.62269
-9.99291
-10.341
-10.7398
-8.95822
-9.27547
-9.60822
-10.0306
-8.12681
-8.31425
-8.54466
-8.8472
-7.26986
-7.29332
-7.32525
-7.39445
-6.53471
-6.4611
-6.36934
-6.27154
-5.94784
-5.82596
-5.67885
-5.51059
-5.49956
-5.35956
-5.19636
-5.01159
-5.17129
-5.03017
-4.8702
-4.69278
-4.93949
-4.80599
-4.65802
-4.49692
-4.78264
-4.66055
-4.52764
-4.38512
-4.6834
-4.57382
-4.45624
-4.33165
-4.62862
-4.53131
-4.42807
-4.31969
-4.60849
-4.52259
-4.43223
-4.33804
-4.61547
-4.53988
-4.46089
-4.37899
-4.64366
-4.5773
-4.50828
-4.43701
-4.6885
-4.63035
-4.57011
-4.5081
-4.74645
-4.69566
-4.64319
-4.58933
-4.81485
-4.77068
-4.72518
-4.67857
-4.89168
-4.85352
-4.81431
-4.77424
-4.97539
-4.94275
-4.90928
-4.87515
-5.06478
-5.03724
-5.00907
-4.98038
-5.15888
-5.13609
-5.11284
-5.08919
-5.25685
-5.23855
-5.2199
-5.20098
-5.35798
-5.34395
-5.32968
-5.31522
-5.46166
-5.45175
-5.44168
-5.43149
-5.56736
-5.56145
-5.55546
-5.54941
-5.67466
-5.6727
-5.67072
-5.66872
5.70854
5.36661
5.43028
5.42022
5.41265
5.39902
5.37102
5.3287
5.27595
5.21737
5.15712
5.09847
5.04385
4.99497
4.95301
4.91874
4.89269
4.87517
4.86638
5.89306
5.58054
5.31637
5.27411
5.29559
5.29986
5.27539
5.22779
5.166
5.09753
5.02813
4.96164
4.90068
4.84688
4.80119
4.76423
4.73631
4.71764
4.7083
1.12522
5.65508
4.97942
5.03294
5.1733
5.21826
5.19601
5.13715
5.06067
4.97797
4.89631
4.8199
4.75129
4.69176
4.6419
4.60196
4.57202
4.55211
4.54218
4.22433
1.83482
4.37743
4.7755
5.09179
5.17751
5.14178
5.05902
4.95926
4.85691
4.7595
4.67125
4.59398
4.52824
4.47401
4.43107
4.39913
4.37799
4.36747
-14.7496
1.06706
4.62362
4.71802
5.13663
5.20129
5.11835
4.99231
4.8585
4.73029
4.6142
4.51286
4.42659
4.35473
4.29635
4.25063
4.2169
4.19468
4.18366
-54.4055
-21.3787
3.91174
5.04231
5.26493
5.28271
5.12282
4.92873
4.75111
4.59181
4.45544
4.34115
4.2466
4.16945
4.10768
4.05978
4.02468
4.00166
3.99026
-66.781
-55.5807
2.91345
5.90781
5.6051
5.412
5.13502
4.85988
4.62373
4.43165
4.27677
4.152
4.05144
3.97077
3.90692
3.85778
3.82193
3.79848
3.78689
-29.9569
-81.5124
3.09829
7.11308
6.20949
5.58335
5.12411
4.7414
4.45433
4.23744
4.07122
3.94152
3.8389
3.75743
3.69331
3.64412
3.60831
3.58491
3.57335
-9.74014
-83.8006
3.11883
8.02703
6.53155
5.61688
4.97356
4.52611
4.2188
3.9977
3.8335
3.70726
3.60785
3.52889
3.46659
3.41869
3.38377
3.36092
3.34963
-10.7317
-73.3458
1.73531
7.86648
6.15985
5.29905
4.61082
4.18065
3.90289
3.70776
3.56265
3.44952
3.35886
3.28567
3.22721
3.18185
3.14856
3.1267
3.11587
-11.5757
-55.2448
1.86748
6.34538
5.08586
4.48225
3.99373
3.7006
3.51263
3.37466
3.26428
3.17222
3.09453
3.02949
2.97626
2.9343
2.90319
2.88263
2.87242
-11.6087
-35.1915
1.49034
3.49834
3.34529
3.18405
3.17074
3.12647
3.07989
3.01857
2.95062
2.88257
2.81906
2.7628
2.71522
2.67698
2.64831
2.62925
2.61975
-11.0773
-23.0834
0.114002
-0.612299
0.88351
1.5782
2.25486
2.56645
2.66248
2.66962
2.63762
2.5889
2.53688
2.48807
2.44559
2.41092
2.3847
2.36719
2.35845
-10.5895
-5.8314
-7.0133
-3.85228
-0.800924
0.414933
1.57536
2.16849
2.32826
2.35739
2.33816
2.29723
2.2511
2.20712
2.16857
2.137
2.11309
2.0971
2.08912
-11.8641
-12.2827
-16.9347
4.36408
1.22003
0.827212
1.6052
2.0362
2.10466
2.09016
2.054
2.00815
1.96221
1.92048
1.88475
1.85585
1.83411
1.81963
1.81242
-12.135
-12.489
-16.2542
3.18823
3.55217
2.3175
2.03536
2.0152
1.92181
1.83841
1.77254
1.71613
1.66793
1.62742
1.59414
1.56784
1.54832
1.53543
1.52904
-11.1456
-12.9454
-13.2668
-0.64368
2.70862
2.57828
2.10232
1.85678
1.68113
1.55946
1.47548
1.41315
1.36485
1.32668
1.29655
1.2733
1.25631
1.24519
1.23972
-9.46727
-10.1551
-7.39284
-0.929596
2.24381
2.11324
1.7779
1.52408
1.35144
1.23317
1.15208
1.09399
1.05068
1.01757
0.992069
0.972744
0.958785
0.949724
0.945283
-7.46938
-6.82536
-4.29259
-0.740049
1.12386
1.29922
1.18276
1.05178
0.943582
0.861737
0.802133
0.758361
0.725556
0.700553
0.681417
0.667011
0.65666
0.649971
0.646705
-6.00321
-4.97411
-3.1801
-1.19697
0.0148506
0.407433
0.513709
0.519574
0.493451
0.461527
0.43327
0.410212
0.391843
0.37733
0.365987
0.357342
0.351089
0.347037
0.345062
-5.14065
-4.21522
-2.93852
-1.64683
-0.773873
-0.324313
-0.104501
-0.00668849
0.0364746
0.0515104
0.0559598
0.0555732
0.0532887
0.0504481
0.0476744
0.045273
0.0434013
0.0421421
0.0415277
-4.63919
-3.87956
-2.94973
-2.03398
-1.34887
-0.915279
-0.652329
-0.497125
-0.404777
-0.354252
-0.320315
-0.299399
-0.286016
-0.277239
-0.271402
-0.267518
-0.264982
-0.263439
-0.262682
-4.35333
-3.73542
-3.03356
-2.35213
-1.80014
-1.40239
-1.12936
-0.946295
-0.82426
-0.743576
-0.68803
-0.649474
-0.622373
-0.603019
-0.589162
-0.579375
-0.572657
-0.568452
-0.566364
-4.19917
-3.69498
-3.14689
-2.61692
-2.16407
-1.80953
-1.54499
-1.35269
-1.21439
-1.11535
-1.04364
-0.991324
-0.952921
-0.924602
-0.90375
-0.888802
-0.878325
-0.871745
-0.868375
-4.12775
-3.71246
-3.2728
-2.84684
-2.46959
-2.15756
-1.91058
-1.7203
-1.57584
-1.46694
-1.38478
-1.32272
-1.27578
-1.24035
-1.21384
-1.19445
-1.18084
-1.17224
-1.16776
-4.11025
-3.76438
-3.40413
-3.05389
-2.7358
-2.4624
-2.23649
-2.05473
-1.91094
-1.79833
-1.71056
-1.64241
-1.58963
-1.54906
-1.51825
-1.49544
-1.47932
-1.46907
-1.46374
-4.12925
-3.83826
-3.53821
-3.24544
-2.97467
-2.73541
-2.53124
-2.36143
-2.22271
-2.11077
-2.02121
-1.95003
-1.89387
-1.84999
-1.81625
-1.79101
-1.77305
-1.76157
-1.75567
-4.17389
-3.92695
-3.67398
-3.42627
-3.19411
-2.98469
-2.80157
-2.64527
-2.5143
-2.40606
-2.31755
-2.24587
-2.18838
-2.14284
-2.10743
-2.08071
-2.06156
-2.04926
-2.04301
-4.23711
-4.02612
-3.8109
-3.59954
-3.39942
-3.21608
-3.05271
-2.91042
-2.78873
-2.68617
-2.60081
-2.53055
-2.47341
-2.42762
-2.39165
-2.36428
-2.34457
-2.33183
-2.32542
-4.31411
-4.13297
-3.94874
-3.76736
-3.59429
-3.43383
-3.28874
-3.16032
-3.04868
-2.95308
-2.87231
-2.80493
-2.74947
-2.70455
-2.66896
-2.6417
-2.62195
-2.60913
-2.60274
-4.40155
-4.2456
-4.08734
-3.93121
-3.78134
-3.6411
-3.51282
-3.39782
-3.2965
-3.2086
-3.1334
-3.06995
-3.01717
-2.97404
-2.93961
-2.91307
-2.89374
-2.88116
-2.87493
-4.49706
-4.36272
-4.22663
-4.09216
-3.96248
-3.84025
-3.72742
-3.62522
-3.53421
-3.45439
-3.38538
-3.32658
-3.27724
-3.2366
-3.20394
-3.17863
-3.16012
-3.14803
-3.14209
-4.59892
-4.48344
-4.3666
-4.25102
-4.13914
-4.03308
-3.93448
-3.84441
-3.76349
-3.69188
-3.62944
-3.57578
-3.53042
-3.4928
-3.4624
-3.43872
-3.42135
-3.40997
-3.40441
-4.70588
-4.60708
-4.50723
-4.40836
-4.31238
-4.22099
-4.13551
-4.05692
-3.98578
-3.92237
-3.86667
-3.81847
-3.77746
-3.74326
-3.71548
-3.69375
-3.67776
-3.66727
-3.66217
-4.81701
-4.73317
-4.64852
-4.56464
-4.48303
-4.40503
-4.33174
-4.26398
-4.2023
-4.14697
-4.09807
-4.05551
-4.01911
-3.9886
-3.96371
-3.94419
-3.92978
-3.9203
-3.91573
-4.93157
-4.86133
-4.79046
-4.7202
-4.65171
-4.58607
-4.52416
-4.46667
-4.41408
-4.36667
-4.32456
-4.28774
-4.25609
-4.22947
-4.20768
-4.19053
-4.17785
-4.16948
-4.16548
-5.04901
-4.99126
-4.93304
-4.8753
-4.81894
-4.76479
-4.71358
-4.66585
-4.62202
-4.58235
-4.54697
-4.51591
-4.48912
-4.46651
-4.44794
-4.4333
-4.42244
-4.41527
-4.41187
-5.16884
-5.12272
-5.07626
-5.03017
-4.98513
-4.94179
-4.9007
-4.8623
-4.82693
-4.79481
-4.76607
-4.74076
-4.71887
-4.70033
-4.68508
-4.67303
-4.66408
-4.65815
-4.65538
-5.29069
-5.25552
-5.22011
-5.18499
-5.15065
-5.11756
-5.08612
-5.05669
-5.02951
-5.00476
-4.98257
-4.96297
-4.94598
-4.93157
-4.91968
-4.91027
-4.90327
-4.89863
-4.8965
-5.41422
-5.38949
-5.36462
-5.33994
-5.31581
-5.29252
-5.27038
-5.24961
-5.23039
-5.21287
-5.19712
-5.18319
-5.17109
-5.16081
-5.15232
-5.14558
-5.14057
-5.13723
-5.13575
-5.53916
-5.52451
-5.50978
-5.49517
-5.48087
-5.46707
-5.45393
-5.4416
-5.43017
-5.41974
-5.41035
-5.40203
-5.3948
-5.38864
-5.38355
-5.37951
-5.37651
-5.37448
-5.37364
-5.66534
-5.66052
-5.65568
-5.65088
-5.64618
-5.64164
-5.63732
-5.63325
-5.62948
-5.62604
-5.62293
-5.62018
-5.61778
-5.61573
-5.61404
-5.61269
-5.61169
-5.61101
-5.61075
)
;

boundaryField
{
    leftWall
    {
        type            calculated;
        value           nonuniform List<scalar> 
50
(
2116.21
2055.98
1994.37
1931.42
1867.15
1801.6
1734.84
1666.95
1559.02
1407.6
1252.43
1094.27
933.931
772.141
609.962
449.299
290.21
133.733
24.8635
-3.98759
-4.11529
-4.24707
-4.36893
-4.47872
-4.57877
-4.66836
-4.7467
-4.81538
-4.87648
-4.93164
-4.98217
-5.0291
-5.07324
-5.11527
-5.15579
-5.19533
-5.23435
-5.27322
-5.31222
-5.35154
-5.39134
-5.43172
-5.47278
-5.51457
-5.5571
-5.60039
-5.64455
-5.68996
-5.73604
-5.77813
)
;
    }
    rightWall
    {
        type            calculated;
        value           nonuniform List<scalar> 
50
(
5.42974
5.3695
5.3078
5.24466
5.18004
5.11393
5.04629
4.97708
4.86638
4.7083
4.54218
4.36747
4.18366
3.99026
3.78689
3.57335
3.34963
3.11587
2.87242
2.61975
2.35845
2.08912
1.81242
1.52904
1.23972
0.945283
0.646705
0.345062
0.0415277
-0.262682
-0.566364
-0.868375
-1.16776
-1.46374
-1.75567
-2.04301
-2.32542
-2.60274
-2.87493
-3.14209
-3.40441
-3.66217
-3.91573
-4.16548
-4.41187
-4.65538
-4.8965
-5.13575
-5.37364
-5.61075
)
;
    }
    lowerWall
    {
        type            calculated;
        value           nonuniform List<scalar> 
62
(
2145.64
2153.63
2156.57
2155.62
2152.73
2149.54
2146.7
2144.36
2142.72
2142.13
2143.28
2147.39
2156.39
2173.14
2201.68
2248
2318.45
2416.81
2541.15
2673.45
2776.69
2800.07
2841.58
2819.82
2775.37
2770.89
2741.45
2655.99
2495.1
2238.34
1859.62
16.2011
47.0618
1.20517
4.28024
5.9806
5.92527
5.87216
5.82344
5.77905
5.74136
5.71245
5.69777
6.01003
5.98888
5.96813
5.94658
5.92257
5.89525
5.86325
5.82632
5.78502
5.74072
5.6951
5.6499
5.60687
5.56742
5.53283
5.50405
5.48187
5.46682
5.45917
)
;
    }
    atmosphere
    {
        type            calculated;
        value           nonuniform List<scalar> 
46
(
-5.79522
-5.79549
-5.79421
-5.79225
-5.78966
-5.78651
-5.78285
-5.77876
-5.77434
-5.76968
-5.76486
-5.76
-5.75519
-5.75054
-5.74613
-5.74207
-5.73844
-5.73531
-5.73274
-5.7308
-5.72956
-5.72906
-5.72904
-5.72904
-5.72904
-5.72904
-5.72904
-5.72904
-5.72904
-5.72904
-5.72904
-5.72904
-5.72904
-5.72904
-5.72904
-5.72904
-5.72904
-5.72904
-5.72904
-5.72904
-5.72904
-5.72904
-5.72904
-5.72904
-5.72904
-5.72904
)
;
    }
    defaultFaces
    {
        type            empty;
    }
}


// ************************************************************************* //
