/*--------------------------------*- C++ -*----------------------------------*\
| =========                 |                                                 |
| \\      /  F ield         | OpenFOAM: The Open Source CFD Toolbox           |
|  \\    /   O peration     | Version:  2206                                  |
|   \\  /    A nd           | Website:  www.openfoam.com                      |
|    \\/     M anipulation  |                                                 |
\*---------------------------------------------------------------------------*/
FoamFile
{
    version     2.0;
    format      ascii;
    arch        "LSB;label=32;scalar=64";
    class       volScalarField;
    location    "0.025";
    object      alpha.water;
}
// * * * * * * * * * * * * * * * * * * * * * * * * * * * * * * * * * * * * * //

dimensions      [0 0 0 0 0 0 0];

internalField   nonuniform List<scalar> 
2268
(
1
0.999999
1
1
1
1
1
1
1
1
1
1
0.616901
0.0334247
0.00117502
0.000113256
8.40378e-06
4.9929e-07
2.37284e-08
8.67897e-10
2.20574e-11
6.06128e-13
4.29215e-13
1
1
1
1
1
1
1
1
1
1
1
1
0.46336
0.0139552
0.0010616
0.000101796
7.6194e-06
4.5881e-07
2.21804e-08
8.29746e-10
2.16943e-11
4.26125e-13
1.75922e-13
1
1
1
1
1
0.999999
1
1
1
1
1
1
0.348494
0.00325326
0.000378179
3.49178e-05
2.62046e-06
1.6011e-07
7.92341e-09
3.06636e-10
8.41868e-12
1.74266e-13
7.32141e-14
1
1
1
1
1
1
1
1
1
1
1
1
0.294952
0.00150346
0.000142448
1.22717e-05
8.94324e-07
5.42957e-08
2.71457e-09
1.07991e-10
3.18324e-12
1.09954e-13
3.54555e-14
1
1
1
1
1
1
1
1
1
1
1
1
0.260995
0.000876817
6.92585e-05
5.35505e-06
3.65946e-07
2.14653e-08
1.06175e-09
4.27076e-11
1.38952e-12
9.39916e-14
2.10337e-14
1
1
1
1
1
1
1
1
1
1
1
1
0.234039
0.000600089
4.15514e-05
2.88583e-06
1.82967e-07
1.02352e-08
4.94906e-10
1.99796e-11
7.159e-13
5.45758e-14
1.47984e-14
1
1
1
1
1
1
1
1
1
1
1
1
0.211582
0.000446851
2.80628e-05
1.78072e-06
1.05388e-07
5.62839e-09
2.65732e-10
1.10606e-11
4.23498e-13
3.36734e-14
1.21195e-14
1
1
1
1
1
1
1
1
1
1
1
1
0.192652
0.000337018
1.96325e-05
1.1583e-06
6.46788e-08
3.32027e-09
1.53975e-10
6.79523e-12
2.94724e-13
2.25294e-14
6.55976e-15
2.50085e-35
4.84275e-36
5.37798e-40
4.44002e-42
4.42263e-44
4.59884e-46
8.95461e-48
8.73597e-50
7.35779e-52
5.61996e-54
3.8106e-56
2.25768e-58
1.1468e-60
4.87036e-63
1.6693e-65
4.37967e-68
8.05836e-71
8.76185e-74
4.38422e-74
4.7134e-33
1.21585e-33
8.74527e-38
5.37798e-40
4.44002e-42
4.42263e-44
2.38685e-45
2.37078e-47
1.89815e-49
1.42979e-51
9.55278e-54
5.55908e-56
2.75524e-58
1.12793e-60
3.64535e-63
8.63292e-66
1.28737e-68
7.18231e-72
4.38329e-74
8.40475e-31
1.56212e-31
2.07031e-35
1.46001e-37
1.22016e-39
1.24041e-41
3.40477e-43
3.20239e-45
2.57546e-47
1.89983e-49
1.24064e-51
7.02304e-54
3.35582e-56
1.30258e-58
3.85684e-61
7.68895e-64
1.26818e-66
1.04702e-69
7.09335e-72
8.69457e-29
1.34801e-29
2.05347e-33
1.81384e-35
1.76805e-37
1.8399e-39
3.51673e-41
3.17121e-43
2.50996e-45
1.80554e-47
1.14478e-49
6.23842e-52
2.82009e-54
1.0177e-56
3.3656e-59
8.32478e-62
1.3696e-64
1.09302e-67
1.0531e-69
6.08445e-27
8.61299e-28
1.56796e-31
1.46788e-33
1.66439e-35
1.8977e-37
2.90812e-39
2.50434e-41
1.93332e-43
1.34664e-45
8.19191e-48
4.29435e-50
2.14293e-52
8.86985e-55
2.92555e-57
7.2151e-60
1.18359e-62
9.25583e-66
1.13601e-67
3.08256e-25
4.23869e-26
9.7371e-30
9.99532e-32
1.17825e-33
1.98051e-35
1.98451e-37
1.62703e-39
1.22025e-41
8.12499e-44
5.38083e-46
3.14345e-48
1.565e-50
6.4595e-53
2.12371e-55
5.21924e-58
8.52998e-61
6.97821e-64
9.81263e-66
4.32594e-23
3.78333e-24
5.08456e-28
5.77909e-30
7.04597e-32
1.16679e-33
1.11518e-35
8.8254e-38
6.55481e-40
4.98127e-42
3.3429e-44
1.94903e-46
9.67642e-49
3.98047e-51
1.30371e-53
3.19085e-56
5.19338e-59
4.29042e-62
7.06181e-64
4.86952e-21
1.35459e-22
3.68702e-25
1.52992e-27
7.68681e-30
7.20263e-32
6.12803e-34
4.73232e-36
4.02988e-38
3.0666e-40
2.05544e-42
1.19545e-44
5.91535e-47
2.42371e-49
7.90332e-52
1.92519e-54
3.11796e-57
2.56337e-60
4.29072e-62
1
1
1
1
1
1
1
1
1
1
1
1
0.170178
0.00024698
1.28688e-05
6.755e-07
3.42291e-08
1.63953e-09
7.34845e-11
3.43674e-12
2.79924e-13
1.7122e-14
1.22669e-15
1
1
1
1
1
1
1
1
1
1
1
1
0.143367
0.000155888
7.23998e-06
3.41916e-07
1.58751e-08
7.151e-10
3.10882e-11
1.47732e-12
1.4343e-13
7.884e-15
4.3907e-16
1
1
1
1
1
1
1
1
1
1
1
1
0.122182
9.89148e-05
4.05279e-06
1.71069e-07
7.21379e-09
3.00736e-10
1.25243e-11
5.86738e-13
5.93788e-14
2.82888e-15
1.2141e-16
1
1
1
1
1
1
1
1
1
1
1
1
0.10485
6.40198e-05
2.31516e-06
8.71816e-08
3.31759e-09
1.26391e-10
5.06082e-12
2.18183e-13
2.11632e-14
8.79692e-16
3.18007e-17
1
1
1
1
1
1
1
1
1
1
1
1
0.0903763
4.16717e-05
1.32976e-06
4.4659e-08
1.52912e-09
5.28466e-11
1.97464e-12
1.35747e-13
7.2866e-15
2.52386e-16
8.44075e-18
1
1
1
1
1
1
1
1
1
1
1
1
0.0781517
2.71963e-05
7.56437e-07
2.28365e-08
7.00918e-10
2.18105e-11
7.50448e-13
6.16902e-14
2.40177e-15
7.22546e-17
2.18843e-18
1
1
1
1
1
1
1
1
1
1
1
1
0.0677442
1.77689e-05
4.28707e-07
1.15971e-08
3.18526e-10
8.87354e-12
2.78144e-13
2.3541e-14
7.59639e-16
2.02071e-17
5.51724e-19
1
1
1
1
1
1
1
1
1
1
1
1
0.0588368
1.16118e-05
2.44019e-07
5.83142e-09
1.43023e-10
3.56326e-12
1.04057e-13
8.37501e-15
2.32077e-16
5.50246e-18
1.34946e-19
1
1
1
1
1
1
1
1
1
1
1
1
0.0511915
7.58961e-06
1.42071e-07
2.91494e-09
6.35093e-11
1.41294e-12
3.84559e-14
2.86043e-15
6.90408e-17
1.45752e-18
3.1937e-20
1
1
1
1
1
1
1
1
1
1
1
1
0.0446286
4.9689e-06
8.08394e-08
1.44901e-09
2.80768e-11
5.66369e-13
2.55821e-14
9.62919e-16
1.94658e-17
3.75005e-19
7.28612e-21
1
1
1
1
1
1
1
1
1
1
1
1
0.0390163
3.27683e-06
4.64476e-08
7.50321e-10
1.19885e-11
2.2705e-13
1.30999e-14
3.18902e-16
5.49675e-18
9.36522e-20
1.59614e-21
1
1
1
1
1
1
1
1
1
1
1
1
0.0342679
2.20743e-06
2.74123e-08
3.97979e-10
5.80749e-12
8.77656e-14
5.57897e-15
1.04469e-16
1.54188e-18
2.27644e-20
3.34786e-22
1
1
1
1
1
1
1
1
1
1
1
1
0.0303392
1.56636e-06
1.7622e-08
2.37383e-10
2.98303e-12
4.12665e-14
2.25694e-15
3.45196e-17
4.33947e-19
5.43014e-21
6.73368e-23
1
1
1
1
1
1
1
1
1
1
1
1
0.0272752
1.25787e-06
1.09119e-08
1.40754e-10
1.9266e-12
2.06801e-14
8.36881e-16
1.13665e-17
1.2338e-19
1.28103e-21
1.29903e-23
1
1
1
1
1
1
1
1
1
1
1
1
0.0254592
1.54096e-06
1.36716e-08
-2.69208e-10
-2.44214e-12
1.61084e-14
2.70734e-16
4.15973e-18
3.99159e-20
3.28192e-22
2.54066e-24
0.999999
0.999999
0.999999
0.999999
0.999999
0.999999
0.999999
0.999998
0.999998
0.999998
0.999998
0.999995
0.0251268
2.7096e-06
3.42062e-08
3.89129e-10
-2.49592e-12
-8.18366e-14
9.89303e-17
2.37844e-18
1.85647e-20
1.0005e-22
4.94711e-25
0.999982
0.999982
0.999981
0.999981
0.99998
0.999979
0.999977
0.999975
0.999973
0.99997
0.999967
0.999924
0.0263313
9.53441e-06
1.58773e-07
1.54612e-09
8.61595e-12
-8.81719e-14
-1.52897e-16
2.55145e-18
8.00355e-21
1.87888e-23
4.98222e-26
0.999687
0.999684
0.999679
0.99967
0.999658
0.999643
0.999624
0.999601
0.999572
0.999526
0.999483
0.997993
0.113601
2.08349e-05
3.36904e-07
2.47706e-09
4.62844e-12
1.26215e-15
7.96973e-16
1.01035e-18
4.8234e-22
4.307e-25
8.81947e-28
0.812248
0.81164
0.810488
0.80875
0.806408
0.803425
0.799715
0.795044
0.789749
0.778914
0.773857
0.52317
0.175511
0.000794852
2.0262e-05
3.83913e-08
1.40994e-14
4.49423e-17
7.5904e-20
1.89386e-20
5.39079e-24
6.87173e-27
1.67666e-29
1.1997e-26
2.02285e-26
3.40396e-24
5.78876e-22
6.42151e-20
5.19656e-18
3.25167e-16
1.62997e-14
6.71565e-13
2.32169e-11
7.01351e-10
2.07593e-08
6.9654e-07
0.00260191
0.000136396
1.46807e-07
-5.76165e-13
2.0029e-18
3.20073e-21
6.36683e-22
3.75118e-25
2.77851e-28
4.5625e-31
1.03771e-27
2.42324e-26
8.36002e-24
1.53603e-21
1.86845e-19
1.6815e-17
1.18484e-15
6.7868e-14
3.24433e-12
1.18583e-10
2.71694e-09
1.2012e-07
8.62841e-06
0.000111749
1.20337e-05
1.07371e-08
-1.58805e-12
-1.64921e-18
4.04828e-20
4.30779e-23
1.86865e-26
9.11602e-30
1.0994e-32
6.29353e-30
1.03172e-27
3.64062e-25
4.34562e-23
3.65976e-21
2.40461e-19
1.27198e-17
5.50822e-16
1.96391e-14
5.74146e-13
1.36223e-11
2.65765e-10
3.80232e-09
4.68207e-08
6.4802e-09
-1.53426e-09
-2.66527e-14
-6.04158e-18
2.36683e-22
2.77936e-25
1.45e-28
1.22884e-31
2.10008e-34
8.49881e-34
2.96076e-31
4.91081e-29
4.75985e-27
3.09505e-25
1.19934e-23
4.90897e-23
-3.17728e-20
-3.52056e-18
-5.49208e-16
-3.71612e-14
-1.21811e-12
-1.2967e-11
1.2773e-11
-5.14514e-10
1.84793e-14
-5.46361e-14
-1.03334e-20
7.15129e-24
2.20586e-27
1.8348e-30
2.1437e-33
3.74106e-36
1.81028e-36
4.64628e-34
1.4336e-32
-3.11538e-30
-6.66672e-28
-7.01568e-26
-5.10404e-24
-2.8836e-22
-1.58446e-20
-1.94503e-18
-1.81781e-16
-3.40736e-15
3.10637e-15
-5.37809e-12
1.24788e-12
-1.18479e-13
-1.75424e-17
-3.8478e-22
3.61444e-27
1.14834e-29
2.42416e-32
3.37801e-35
5.59382e-38
-7.86147e-38
-5.12935e-35
-8.42797e-33
-9.39025e-31
-7.71974e-29
-4.93693e-27
-2.54015e-25
-1.06535e-23
-3.76363e-22
-1.17403e-20
-2.28602e-19
1.6899e-19
1.4291e-15
4.3187e-14
-3.981e-15
7.71754e-17
-8.21537e-20
1.10887e-25
-1.6236e-28
4.76578e-32
1.49286e-34
4.05089e-37
6.31797e-40
-1.04203e-41
-6.43733e-41
-6.62265e-39
-5.89437e-37
5.02165e-36
4.95785e-34
3.01413e-32
1.5418e-30
6.76428e-29
1.61491e-25
9.83711e-23
5.77485e-21
4.84644e-18
9.6167e-17
1.31449e-19
1.21325e-18
6.68567e-24
1.85384e-27
1.31396e-30
8.7021e-34
8.44715e-37
2.88218e-39
9.62545e-42
3.28515e-49
7.96095e-46
1.25245e-43
2.51967e-41
2.96862e-39
2.36473e-37
1.5539e-35
8.65975e-34
4.18341e-32
3.72233e-30
1.27986e-27
7.93397e-26
3.45338e-24
2.60327e-21
6.68538e-20
3.01322e-21
7.39338e-26
2.43373e-29
1.92525e-32
-4.97816e-37
1.28333e-38
2.60849e-41
1.54215e-43
9.05142e-55
-1.56608e-51
-9.66192e-49
-3.63431e-46
-7.03603e-44
-9.89462e-42
-1.08471e-39
-9.57232e-38
-6.65688e-36
1.43868e-33
8.34286e-31
5.85438e-29
2.89901e-27
3.05738e-24
9.23823e-23
4.3646e-27
5.94293e-28
2.4815e-31
2.33263e-34
-1.50311e-38
1.88951e-40
3.71036e-43
2.2012e-45
2.8971e-59
2.07645e-57
-9.30459e-54
-2.6582e-51
-4.77768e-49
-6.27822e-47
-6.40266e-45
-5.25691e-43
-2.59038e-41
6.94836e-40
6.08551e-37
5.07304e-35
3.82598e-33
1.14714e-30
1.46818e-28
3.86788e-27
3.37928e-30
1.94373e-33
2.21821e-36
1.86969e-39
5.74283e-43
4.625e-45
2.79058e-47
-1.69958e-62
-1.62134e-59
-4.24072e-57
-7.4409e-55
-9.90194e-53
-1.04414e-50
-9.04712e-49
-6.55997e-47
-4.15219e-45
5.78355e-44
1.62109e-40
1.7397e-38
1.19413e-36
6.71263e-35
1.09355e-31
4.68392e-30
1.3008e-32
1.15203e-35
1.69106e-38
1.69567e-41
9.71652e-45
5.04244e-47
3.13591e-49
-5.71564e-68
-1.70714e-66
-5.35921e-64
-1.19913e-61
-1.74267e-59
-1.57129e-57
-9.41998e-56
-7.20642e-54
-4.27331e-52
5.62644e-49
5.28098e-45
8.63938e-43
7.24179e-41
4.82229e-39
1.11753e-35
5.50312e-34
1.30275e-39
4.00196e-38
1.02497e-40
1.27591e-43
1.12075e-46
4.81534e-49
3.12818e-51
2.05402e-76
1.51092e-73
5.44579e-71
1.29965e-68
2.32182e-66
3.31819e-64
3.96919e-62
3.92958e-60
3.50158e-58
3.07299e-56
1.10977e-53
6.61546e-51
7.18374e-49
5.87555e-47
4.20681e-45
1.14535e-41
6.56678e-40
1.51144e-41
3.40117e-43
7.8671e-46
1.41196e-48
3.64523e-51
2.76306e-53
4.14755e-85
-1.60632e-80
-1.04595e-77
-3.34365e-75
-7.0095e-73
-1.08664e-70
-1.3699e-68
-1.51335e-66
-1.35909e-64
-5.71702e-63
4.94861e-59
5.67377e-55
9.42115e-53
9.66256e-51
8.3298e-49
3.29131e-45
2.17331e-43
1.07703e-47
4.51158e-46
4.00485e-48
8.88991e-51
2.71257e-53
1.88304e-55
4.4766e-88
3.97517e-85
1.76562e-82
5.24779e-80
1.17689e-77
2.13023e-75
3.25255e-73
4.32525e-71
4.96569e-69
5.76917e-67
5.8061e-65
1.24883e-62
9.65814e-60
1.3636e-57
1.47257e-55
1.42447e-53
6.95315e-50
5.41861e-48
3.03583e-49
1.09359e-50
4.78268e-53
1.88154e-55
1.05585e-57
3.51802e-93
3.63851e-90
1.88561e-87
6.54828e-85
1.71933e-82
3.6529e-80
6.56622e-78
1.03141e-75
1.42026e-73
1.87544e-71
2.23598e-69
2.86956e-67
9.4964e-64
2.65265e-61
3.83999e-59
4.63577e-57
3.45391e-53
3.14724e-51
4.44662e-53
1.68439e-53
1.62894e-55
8.82212e-58
5.30149e-60
3.88591e-100
4.28454e-97
2.42182e-94
9.4295e-92
2.85634e-89
7.19468e-87
1.56996e-84
3.05044e-82
5.38245e-80
7.76336e-78
1.318e-75
1.91188e-73
2.9819e-70
7.23454e-66
1.81174e-63
2.94552e-61
3.64191e-57
3.92185e-55
2.51294e-58
1.80192e-56
3.7807e-58
3.06252e-60
2.39964e-62
3.84588e-105
5.9551e-102
4.61457e-99
2.39434e-96
9.39311e-94
2.98328e-91
8.02264e-89
1.88721e-86
3.92508e-84
7.63937e-82
1.38974e-79
2.36668e-77
3.88355e-75
6.47543e-73
1.05396e-69
2.91946e-67
5.64393e-65
9.32532e-61
1.26093e-58
1.25317e-59
7.25227e-61
9.34648e-63
9.96033e-65
1.22184e-110
2.38717e-107
2.34301e-104
1.54614e-101
7.74255e-99
3.14906e-96
1.08764e-93
3.29486e-91
8.97834e-89
2.24677e-86
5.2513e-84
1.16741e-81
2.4997e-79
5.22238e-77
1.1388e-74
3.63814e-71
1.25769e-68
4.222e-64
7.09547e-62
5.06337e-63
1.16243e-63
2.54415e-65
3.74278e-67
-1.68234e-116
-3.31893e-113
-3.12995e-110
-1.84179e-107
-7.12128e-105
-1.48623e-102
2.39772e-100
4.12533e-97
2.47253e-94
9.09857e-92
3.39829e-89
1.38999e-86
4.20489e-84
1.24083e-81
3.62033e-79
1.12395e-76
9.04973e-73
1.00932e-67
2.21011e-65
9.49083e-67
1.58789e-66
6.29288e-68
1.31128e-69
-8.93759e-124
-2.69287e-120
-4.00409e-117
-3.92721e-114
-2.85092e-111
-1.62309e-108
-7.43007e-106
-2.70266e-103
-7.02916e-101
-4.46197e-99
-5.05874e-96
8.84637e-93
4.46535e-90
2.20242e-87
1.07412e-84
5.24102e-82
2.75325e-79
2.82582e-72
1.75445e-69
3.53344e-69
1.90744e-69
1.44771e-70
4.36154e-72
-2.73389e-134
-1.80098e-130
-5.70798e-127
-1.17339e-123
-1.77372e-120
-2.11385e-117
-2.07616e-114
-1.73128e-111
-1.24914e-108
-7.85072e-106
-4.20987e-103
-2.24758e-100
-1.54895e-98
4.69369e-95
1.48995e-91
2.17985e-88
3.22649e-85
1.78648e-81
7.51789e-75
3.37289e-72
2.10618e-72
3.31773e-73
1.44993e-74
-1.30726e-145
-2.28749e-141
-1.90793e-137
-1.00074e-133
-3.95267e-130
-1.2564e-126
-3.33205e-123
-7.58907e-120
-1.51215e-116
-2.65781e-113
-4.10388e-110
-5.37722e-107
-1.54087e-103
-1.00082e-102
-1.72833e-99
-2.58434e-99
-1.73538e-96
6.68545e-98
5.66973e-79
1.23456e-75
2.89569e-75
1.44092e-74
4.06526e-76
1.2455e-16
3.19987e-17
3.48744e-18
2.33642e-19
3.78943e-17
9.62542e-18
9.47665e-19
5.54713e-20
8.84844e-18
1.86086e-18
1.55698e-19
8.69079e-21
1.97998e-18
3.71685e-19
2.70294e-20
1.39836e-21
4.40077e-19
7.60935e-20
4.89636e-21
2.33181e-22
9.61212e-20
1.54555e-20
8.89194e-22
3.90052e-23
2.04355e-20
3.06817e-21
1.58624e-22
6.41145e-24
4.19516e-21
5.89034e-22
2.7391e-23
1.01871e-24
8.24941e-22
1.0833e-22
4.52144e-24
1.54214e-25
1.53972e-22
1.88918e-23
7.04374e-25
2.19187e-26
2.70083e-23
3.0892e-24
1.02108e-25
2.878e-27
4.40362e-24
4.67799e-25
1.3551e-26
3.42511e-28
6.58283e-25
6.46157e-26
1.6131e-27
3.60648e-29
8.83342e-26
7.95955e-27
1.67139e-28
3.24627e-30
1.05561e-26
8.62679e-28
1.4575e-29
2.38995e-31
8.38581e-28
7.20462e-29
9.54703e-31
1.31057e-32
4.30181e-29
3.23312e-30
3.58309e-32
4.57593e-34
5.87975e-30
6.37973e-32
7.53336e-34
1.03992e-35
1.38129e-31
1.19741e-33
1.42647e-35
2.04757e-37
2.47053e-33
2.48772e-35
2.92362e-37
4.37238e-39
4.44133e-35
4.53317e-37
5.36759e-39
8.71328e-41
5.78099e-37
6.47448e-39
8.11526e-41
1.56622e-42
1.13155e-38
1.2103e-40
1.49958e-42
2.45238e-44
2.43059e-40
2.55376e-42
3.09064e-44
3.27122e-46
4.77215e-42
4.953e-44
5.88915e-46
3.24525e-48
8.49737e-44
8.76558e-46
1.03469e-47
5.42724e-50
1.36368e-45
1.40613e-47
1.65837e-49
8.74729e-52
1.96399e-47
2.04028e-49
2.42019e-51
1.29466e-53
2.5312e-49
2.66721e-51
3.12081e-53
1.75663e-55
2.91151e-51
2.99976e-53
3.30599e-55
2.17808e-57
2.75942e-53
2.75859e-55
3.15603e-57
2.47022e-59
2.17193e-55
2.27446e-57
2.71725e-59
2.56515e-61
1.53024e-57
1.68732e-59
2.11856e-61
2.44432e-63
9.62519e-60
1.13459e-61
1.50469e-63
2.14509e-65
5.4859e-62
6.94718e-64
9.81133e-66
1.54097e-67
2.83561e-64
3.90249e-66
5.90894e-68
9.87578e-70
1.34699e-66
2.0267e-68
3.31688e-70
5.93038e-72
5.98733e-69
9.87627e-71
1.7542e-72
3.37086e-74
2.51646e-71
4.56048e-73
8.84496e-75
1.83351e-76
1.01847e-73
2.02742e-75
4.30383e-77
9.67098e-79
4.06526e-76
9.02907e-78
2.09314e-79
6.15682e-81
9.03342e-78
2.09374e-79
5.05128e-81
8.28737e-83
3.12928e-20
1.61016e-22
1.46072e-24
1.97515e-26
2.39036e-28
2.66179e-30
2.72751e-32
2.54451e-34
2.13868e-36
1.60154e-38
1.0545e-40
6.00476e-43
2.89312e-45
1.14347e-47
3.53297e-50
7.85321e-53
1.03861e-55
7.16803e-59
2.56337e-60
6.30438e-21
3.03462e-23
3.70308e-25
6.42672e-27
9.58906e-29
1.25025e-30
1.439e-32
1.4723e-34
1.34019e-36
1.082e-38
7.69829e-41
4.78016e-43
2.55527e-45
1.15385e-47
4.2903e-50
1.26071e-52
2.74606e-55
3.94243e-58
4.76439e-60
9.85003e-22
4.91236e-24
6.64102e-26
1.14455e-27
1.68971e-29
2.21538e-31
2.57828e-33
2.6663e-35
2.44711e-37
1.98602e-39
1.41638e-41
8.79442e-44
4.69255e-46
2.11281e-48
7.78484e-51
2.26334e-53
4.87141e-56
6.8387e-59
6.7319e-61
1.54113e-22
7.49923e-25
1.05451e-26
1.82578e-28
2.70264e-30
3.54412e-32
4.11961e-34
4.24869e-36
3.88284e-38
3.13305e-40
2.21829e-42
1.36557e-44
7.21453e-47
3.21189e-49
1.17377e-51
3.38553e-54
7.23378e-57
1.01144e-59
7.88048e-62
2.45254e-23
1.12576e-25
1.59741e-27
2.73441e-29
4.02414e-31
5.24629e-33
6.05969e-35
6.20463e-37
5.62405e-39
4.4969e-41
3.15285e-43
1.92111e-45
1.00453e-47
4.42751e-50
1.60303e-52
4.58632e-55
9.7375e-58
1.35902e-60
7.78436e-63
3.89048e-24
1.64688e-26
2.29371e-28
3.80524e-30
5.47681e-32
7.00531e-34
7.95401e-36
8.01365e-38
7.15031e-40
5.62886e-42
3.88592e-44
2.33193e-46
1.20135e-48
5.22021e-51
1.8651e-53
5.27263e-56
1.10805e-58
1.53638e-61
6.54222e-64
6.03761e-25
2.33033e-27
3.13053e-29
4.95542e-31
6.8751e-33
8.51895e-35
9.40391e-37
9.23345e-39
8.04242e-41
6.18769e-43
4.17893e-45
2.45547e-47
1.23976e-49
5.28518e-52
1.85481e-54
5.15787e-57
1.06806e-59
1.46378e-62
4.69601e-65
9.0118e-26
3.1476e-28
4.03076e-30
6.01389e-32
7.9458e-34
9.43173e-36
1.00204e-37
9.5024e-40
8.01512e-42
5.98439e-44
3.92902e-46
2.24779e-48
1.10662e-50
4.60671e-53
1.5811e-55
4.30688e-58
8.75191e-61
1.18032e-63
2.88461e-66
1.27309e-26
3.99904e-29
4.83915e-31
6.73653e-33
8.38907e-35
9.44625e-37
9.57199e-39
8.69561e-41
7.05123e-43
5.07614e-45
3.22136e-47
1.78529e-49
8.53141e-52
3.45388e-54
1.15498e-56
3.07106e-59
6.10364e-62
8.072e-65
1.51879e-67
1.67345e-27
4.70194e-30
5.33877e-32
6.873e-34
7.99525e-36
8.46818e-38
8.1206e-40
7.01734e-42
5.43633e-44
3.75271e-46
2.29092e-48
1.2248e-50
5.66063e-53
2.22155e-55
7.21752e-58
1.86855e-60
3.6236e-63
4.68799e-66
6.87029e-69
2.0075e-28
5.02144e-31
5.31728e-33
6.27995e-35
6.77193e-37
6.69914e-39
6.04119e-41
4.93827e-43
3.63737e-45
2.39784e-47
1.4033e-49
7.21688e-52
3.21819e-54
1.22197e-56
3.85083e-59
9.69361e-62
1.83214e-64
2.31618e-67
2.68023e-70
2.14621e-29
4.76375e-32
4.67901e-34
5.03403e-36
5.00109e-38
4.59683e-40
3.88137e-42
2.99072e-44
2.08859e-46
1.31204e-48
7.34949e-51
3.63174e-53
1.56144e-55
5.734e-58
1.75249e-60
4.2897e-63
7.90363e-66
9.76562e-69
9.06869e-72
1.98094e-30
3.90534e-33
3.54283e-35
3.45381e-37
3.14936e-39
2.68321e-41
2.11828e-43
1.53751e-45
1.01795e-47
6.09602e-50
3.27077e-52
1.55454e-54
6.4518e-57
2.29444e-59
6.81086e-62
1.62356e-64
2.9205e-67
3.53207e-70
2.68121e-73
1.50573e-31
2.67044e-34
2.23421e-36
1.9708e-38
1.65055e-40
1.30607e-42
9.6669e-45
6.63014e-47
4.17528e-49
2.39151e-51
1.2331e-53
5.655e-56
2.27262e-58
7.85032e-61
2.2698e-63
5.28372e-66
9.3038e-69
1.10407e-71
7.00318e-75
8.83985e-33
1.46182e-35
1.13111e-37
9.08206e-40
7.0399e-42
5.21608e-44
3.64825e-46
2.38185e-48
1.43633e-50
7.91701e-53
3.94471e-55
1.75439e-57
6.85863e-60
2.31097e-62
6.53367e-65
1.49058e-67
2.57779e-70
3.01064e-73
1.77754e-76
3.39143e-34
6.08976e-37
4.4379e-39
3.30473e-41
2.41134e-43
1.69774e-45
1.13633e-47
7.13811e-50
4.1599e-52
2.22407e-54
1.07827e-56
4.67892e-59
1.78899e-61
5.90815e-64
1.64045e-66
3.68229e-69
6.27682e-72
7.23835e-75
4.22826e-78
7.13154e-36
1.87078e-38
1.32199e-40
9.4421e-43
6.64821e-45
4.53282e-47
2.94664e-49
1.80233e-51
1.02509e-53
5.36024e-56
2.54664e-58
1.08486e-60
4.0789e-63
1.32669e-65
3.63332e-68
8.05568e-71
1.35825e-73
1.55152e-76
8.99393e-80
6.66355e-38
4.37945e-40
3.0767e-42
2.17235e-44
1.50782e-46
1.01186e-48
6.47177e-51
3.89506e-53
2.18114e-55
1.12387e-57
5.26643e-60
2.21498e-62
8.23047e-65
2.64833e-67
7.18235e-70
1.5786e-72
2.64132e-75
2.99747e-78
1.72754e-81
1.30283e-39
8.70725e-42
6.03996e-44
4.19014e-46
2.88797e-48
1.93037e-50
1.22755e-52
7.32973e-55
4.07039e-57
2.07991e-59
9.66689e-62
4.03407e-64
1.48804e-66
4.75563e-69
1.28179e-71
2.80178e-74
4.66574e-77
5.27421e-80
3.02893e-83
2.95736e-41
1.79891e-43
1.15327e-45
7.43853e-48
4.97525e-50
3.27172e-52
2.04495e-54
1.21931e-56
6.75962e-59
3.44481e-61
1.59547e-63
6.6345e-66
2.43891e-68
7.76858e-71
2.0875e-73
4.55083e-76
7.56198e-79
8.53467e-82
4.89339e-85
6.34433e-43
3.66807e-45
2.23929e-47
1.37906e-49
8.68978e-52
5.37538e-54
3.17515e-56
1.86907e-58
1.02305e-60
5.16562e-63
2.39444e-65
9.96288e-68
3.66358e-70
1.16646e-72
3.13345e-75
6.82994e-78
1.13502e-80
1.28159e-83
7.3477e-87
1.2796e-44
7.11044e-47
4.17521e-49
2.476e-51
1.50249e-53
8.96391e-56
5.11773e-58
2.86921e-60
1.50194e-62
7.33166e-65
3.37179e-67
1.39226e-69
5.08767e-72
1.62424e-74
4.37393e-77
9.55403e-80
1.59115e-82
1.80067e-85
1.03363e-88
2.4122e-46
1.3014e-48
7.40887e-51
4.25943e-53
2.50809e-55
1.45353e-57
8.07202e-60
4.4033e-62
2.24746e-64
1.06872e-66
4.7527e-69
1.90558e-71
6.7904e-74
2.1614e-76
5.80595e-79
1.2661e-81
2.10749e-84
2.38661e-87
1.37095e-90
4.21178e-48
2.23644e-50
1.24623e-52
7.00151e-55
4.02625e-57
2.27899e-59
1.23694e-61
6.60387e-64
3.30297e-66
1.54109e-68
6.73226e-71
2.65693e-73
9.33515e-76
2.91255e-78
7.69807e-81
1.65809e-83
2.73617e-86
3.08322e-89
1.76885e-92
6.78018e-50
3.59105e-52
1.97903e-54
1.0958e-56
6.19844e-59
3.44817e-61
1.83903e-63
9.65067e-66
4.74801e-68
2.1816e-70
9.39835e-73
3.66297e-75
1.27293e-77
3.93297e-80
1.03131e-82
2.20821e-85
3.62946e-88
4.08182e-91
2.33893e-94
9.98915e-52
5.36885e-54
2.95831e-56
1.62878e-58
9.13042e-61
5.02361e-63
2.64713e-65
1.37204e-67
6.66795e-70
3.02792e-72
1.29013e-74
4.97819e-77
1.71489e-79
5.25951e-82
1.37095e-84
2.92216e-87
4.78858e-90
5.37802e-93
3.07928e-96
1.35403e-53
7.45289e-56
4.15559e-58
2.29563e-60
1.28491e-62
7.03713e-65
3.68416e-67
1.89511e-69
9.13587e-72
4.11506e-74
1.73968e-76
6.66402e-79
2.28063e-81
6.95521e-84
1.80465e-86
3.83328e-89
6.26743e-92
7.03224e-95
4.02302e-98
1.68603e-55
9.59242e-58
5.48328e-60
3.06629e-62
1.72642e-64
9.47156e-67
4.95363e-69
2.54093e-71
1.22012e-73
5.47098e-76
2.30202e-78
8.77706e-81
2.99094e-83
9.08707e-86
2.35042e-88
4.98073e-91
8.1312e-94
9.11858e-97
5.21172e-100
1.92466e-57
1.14863e-59
6.80218e-62
3.88326e-64
2.21506e-66
1.22483e-68
6.43346e-71
3.30598e-73
1.58766e-75
7.11184e-78
2.98735e-80
1.13669e-82
3.86528e-85
1.17202e-87
3.02628e-90
6.40471e-93
1.04478e-95
1.17149e-98
6.68884e-102
2.02428e-59
1.28537e-61
7.94808e-64
4.6695e-66
2.71648e-68
1.52273e-70
8.07347e-73
4.17476e-75
2.0129e-77
9.03808e-80
3.80112e-82
1.447e-84
4.92034e-87
1.49153e-89
3.85003e-92
8.14597e-95
1.32871e-97
1.49023e-100
8.49934e-104
1.97673e-61
1.35324e-63
8.76875e-66
5.34343e-68
3.18951e-70
1.8222e-72
9.79843e-75
5.11988e-77
2.48761e-79
1.1232e-81
4.74275e-84
1.81057e-86
6.16883e-89
1.87256e-91
4.8383e-94
1.02444e-96
1.67197e-99
1.87633e-102
1.06885e-105
1.81059e-63
1.34388e-65
9.18436e-68
5.83607e-70
3.59342e-72
2.10253e-74
1.15166e-76
6.10447e-79
2.99911e-81
1.36582e-83
5.80546e-86
2.22751e-88
7.61873e-91
2.31945e-93
6.00619e-96
1.27381e-98
2.08146e-101
2.33801e-104
1.33012e-107
1.57283e-65
1.26694e-67
9.17438e-70
6.10453e-72
3.8952e-74
2.34429e-76
1.3132e-78
7.08635e-81
3.53152e-83
1.62667e-85
6.97685e-88
2.69613e-90
9.27335e-93
2.83553e-95
7.36711e-98
1.56633e-100
2.56398e-103
2.88349e-106
1.63814e-109
1.32187e-67
1.14095e-69
8.7796e-72
6.13774e-74
4.07475e-76
2.5322e-78
1.45581e-80
8.0235e-83
4.0677e-85
1.89986e-87
8.2406e-90
3.21338e-92
1.11323e-94
3.42331e-97
8.93327e-100
1.90553e-102
3.12634e-105
3.52106e-108
1.99731e-111
1.16391e-69
9.86557e-72
8.08585e-74
5.95427e-76
4.12703e-78
2.65721e-80
1.5729e-82
8.87936e-85
4.59129e-87
2.17938e-89
9.57884e-92
3.77554e-94
1.31934e-96
4.08501e-99
1.07168e-101
2.29501e-104
3.77567e-107
4.25952e-110
2.41226e-113
9.28496e-72
8.21805e-74
7.19713e-76
5.59455e-78
4.06101e-80
2.71725e-82
1.6607e-84
9.62737e-87
5.08889e-89
2.45995e-91
1.09752e-93
4.37922e-96
1.54553e-98
4.8233e-101
1.27314e-103
2.7389e-106
4.52004e-109
5.10877e-112
2.88817e-115
6.1857e-74
6.61952e-76
6.20873e-78
5.11083e-80
3.89634e-82
2.71663e-84
1.71853e-86
1.02537e-88
5.55166e-91
2.73773e-93
1.24178e-95
5.02243e-98
1.79215e-100
5.64229e-103
1.49952e-105
3.24228e-108
5.36932e-111
6.08082e-114
3.43135e-117
4.37714e-76
5.17232e-78
5.21185e-80
4.55768e-82
3.65898e-84
2.66475e-86
1.74856e-88
1.07582e-90
5.97642e-93
3.01102e-95
1.39023e-97
5.70577e-100
2.06038e-102
6.5488e-105
1.75336e-107
3.81197e-110
6.33626e-113
7.19104e-116
4.04993e-119
3.0612e-78
3.94099e-80
4.27451e-82
3.98445e-84
3.37677e-86
2.57413e-88
1.75525e-90
1.11536e-92
6.36606e-95
3.28066e-97
1.54346e-99
6.43359e-102
2.3527e-104
7.55378e-107
2.03834e-109
4.45731e-112
7.43803e-115
8.45985e-118
4.75478e-121
2.07935e-80
2.93495e-82
3.44249e-84
3.43061e-86
3.07584e-88
2.45856e-90
1.7446e-92
1.14636e-94
6.72943e-97
3.55034e-99
1.7033e-101
7.21516e-104
2.67338e-106
8.67394e-109
2.35975e-111
5.19128e-114
8.69794e-117
9.91474e-120
5.49763e-123
1.37216e-82
2.13983e-84
2.73194e-86
2.92098e-88
2.77809e-90
2.33159e-92
1.72355e-94
1.17208e-96
7.08131e-99
3.82694e-101
1.87308e-103
8.06632e-106
3.02916e-108
9.9343e-111
2.7252e-113
6.03211e-116
1.01484e-118
1.1592e-121
6.39555e-125
1.23509e-84
1.52729e-86
1.5955e-88
1.49653e-90
1.24485e-92
1.08425e-94
8.37955e-97
5.91445e-99
3.68628e-101
2.04462e-103
1.02261e-105
4.48321e-108
1.70837e-110
5.66901e-113
1.56957e-115
3.49845e-118
5.91457e-121
6.94196e-124
6.39555e-125
)
;

boundaryField
{
    leftWall
    {
        type            zeroGradient;
    }
    rightWall
    {
        type            zeroGradient;
    }
    lowerWall
    {
        type            zeroGradient;
    }
    atmosphere
    {
        type            inletOutlet;
        inletValue      uniform 0;
        value           nonuniform List<scalar> 
46
(
0
0
0
0
0
0
0
0
0
0
0
0
0
0
0
0
0
0
0
0
2.89569e-75
1.44092e-74
4.06526e-76
9.03342e-78
2.09374e-79
5.05128e-81
8.28737e-83
1.23509e-84
1.52729e-86
1.5955e-88
1.49653e-90
1.24485e-92
1.08425e-94
8.37955e-97
5.91445e-99
3.68628e-101
2.04462e-103
1.02261e-105
4.48321e-108
1.70837e-110
5.66901e-113
1.56957e-115
3.49845e-118
5.91457e-121
6.94196e-124
6.39555e-125
)
;
    }
    defaultFaces
    {
        type            empty;
    }
}


// ************************************************************************* //
