/*--------------------------------*- C++ -*----------------------------------*\
| =========                 |                                                 |
| \\      /  F ield         | OpenFOAM: The Open Source CFD Toolbox           |
|  \\    /   O peration     | Version:  2206                                  |
|   \\  /    A nd           | Website:  www.openfoam.com                      |
|    \\/     M anipulation  |                                                 |
\*---------------------------------------------------------------------------*/
FoamFile
{
    version     2.0;
    format      ascii;
    arch        "LSB;label=32;scalar=64";
    class       surfaceScalarField;
    location    "0.35";
    object      phi;
}
// * * * * * * * * * * * * * * * * * * * * * * * * * * * * * * * * * * * * * //

dimensions      [0 3 -1 0 0 0 0];

oriented        oriented;

internalField   nonuniform List<scalar> 
4432
(
-2.23448e-06
2.23448e-06
1.5041e-07
-2.38489e-06
5.65068e-06
-5.50028e-06
1.23141e-05
-6.66339e-06
1.86421e-05
-6.328e-06
2.39863e-05
-5.34423e-06
2.82697e-05
-4.28342e-06
3.167e-05
-3.40029e-06
3.44153e-05
-2.74533e-06
3.66838e-05
-2.26842e-06
3.85641e-05
-1.88039e-06
4.00546e-05
-1.4905e-06
4.10532e-05
-9.98565e-07
4.13402e-05
-2.87036e-07
4.043e-05
9.1026e-07
3.74514e-05
2.97852e-06
3.14073e-05
6.04414e-06
2.13229e-05
1.00844e-05
7.72127e-06
1.36016e-05
-6.4683e-06
1.41896e-05
-1.59216e-05
9.45333e-06
-1.70311e-05
1.10943e-06
-1.70311e-05
-2.2078e-06
4.44228e-06
3.23722e-07
-4.91641e-06
5.89643e-06
-1.1073e-05
1.25431e-05
-1.331e-05
1.88234e-05
-1.26083e-05
2.41197e-05
-1.06406e-05
2.83757e-05
-8.53941e-06
3.17799e-05
-6.80448e-06
3.45608e-05
-5.52629e-06
3.68888e-05
-4.59641e-06
3.8844e-05
-3.83556e-06
4.0415e-05
-3.06148e-06
4.15344e-05
-2.11801e-06
4.21325e-05
-8.85134e-07
4.2228e-05
8.1478e-07
4.19641e-05
3.24236e-06
4.09288e-05
7.07947e-06
3.75886e-05
1.34247e-05
2.91337e-05
2.20565e-05
1.42126e-05
2.91107e-05
-3.68217e-06
2.73481e-05
-8.70474e-06
6.13201e-06
-2.57358e-05
-1.98617e-06
6.42844e-06
6.37685e-07
-7.54026e-06
6.27067e-06
-1.6706e-05
1.28398e-05
-1.98791e-05
1.89699e-05
-1.87384e-05
2.41127e-05
-1.57834e-05
2.82591e-05
-1.26858e-05
3.16187e-05
-1.01641e-05
3.44179e-05
-8.32545e-06
3.6811e-05
-6.98952e-06
3.88594e-05
-5.88401e-06
4.05424e-05
-4.74442e-06
4.17782e-05
-3.35386e-06
4.24295e-05
-1.53639e-06
4.23777e-05
8.66531e-07
4.15539e-05
4.06615e-06
4.0239e-05
8.39445e-06
3.90387e-05
1.46249e-05
3.70698e-05
2.40254e-05
3.09865e-05
3.5194e-05
1.90075e-05
3.93271e-05
6.75197e-06
1.83875e-05
-1.89839e-05
-1.69113e-06
8.11957e-06
1.10798e-06
-1.03394e-05
6.78412e-06
-2.23821e-05
1.32269e-05
-2.63219e-05
1.91397e-05
-2.46513e-05
2.40725e-05
-2.07162e-05
2.80823e-05
-1.66956e-05
3.14017e-05
-1.34835e-05
3.42473e-05
-1.1171e-05
3.67476e-05
-9.48982e-06
3.89373e-05
-8.07373e-06
4.07767e-05
-6.58384e-06
4.2175e-05
-4.75216e-06
4.30134e-05
-2.37476e-06
4.31507e-05
7.29191e-07
4.24802e-05
4.73669e-06
4.09892e-05
9.88539e-06
3.92096e-05
1.64045e-05
3.83385e-05
2.48965e-05
3.75162e-05
3.60163e-05
3.19335e-05
4.49098e-05
1.81298e-05
3.21912e-05
-8.54007e-07
-1.29856e-06
9.41813e-06
1.71288e-06
-1.33508e-05
7.40073e-06
-2.807e-05
1.36606e-05
-3.25818e-05
1.92954e-05
-3.02861e-05
2.39767e-05
-2.53975e-05
2.7839e-05
-2.05579e-05
3.11342e-05
-1.67787e-05
3.40581e-05
-1.40949e-05
3.67034e-05
-1.21352e-05
3.90717e-05
-1.0442e-05
4.11016e-05
-8.61369e-06
4.26944e-05
-6.34498e-06
4.37342e-05
-3.41457e-06
4.41096e-05
3.53835e-07
4.37324e-05
5.11381e-06
4.25682e-05
1.10496e-05
4.06953e-05
1.82774e-05
3.8949e-05
2.66428e-05
3.84867e-05
3.64787e-05
3.60158e-05
4.73807e-05
2.33978e-05
4.48091e-05
2.25438e-05
-8.06407e-07
1.02245e-05
2.43428e-06
-1.65915e-05
8.10374e-06
-3.37394e-05
1.41292e-05
-3.86072e-05
1.94387e-05
-3.55956e-05
2.38465e-05
-2.98054e-05
2.75691e-05
-2.42805e-05
3.08679e-05
-2.00775e-05
3.39055e-05
-1.71325e-05
3.67297e-05
-1.49594e-05
3.93048e-05
-1.30172e-05
4.15473e-05
-1.08562e-05
4.33515e-05
-8.14922e-06
4.46075e-05
-4.67054e-06
4.52155e-05
-2.54147e-07
4.51099e-05
5.21942e-06
4.42688e-05
1.18906e-05
4.2704e-05
1.98423e-05
4.04839e-05
2.88629e-05
3.86197e-05
3.83429e-05
3.62008e-05
4.97996e-05
2.52918e-05
5.57181e-05
4.78356e-05
-2.56596e-07
1.04811e-05
3.24411e-06
-2.00922e-05
8.8686e-06
-3.93639e-05
1.46202e-05
-4.43589e-05
1.95828e-05
-4.05581e-05
2.37241e-05
-3.39467e-05
2.7338e-05
-2.78944e-05
3.06826e-05
-2.3422e-05
3.38744e-05
-2.03242e-05
3.69101e-05
-1.79951e-05
3.97165e-05
-1.58236e-05
4.21901e-05
-1.33297e-05
4.42197e-05
-1.01789e-05
4.56984e-05
-6.14919e-06
4.65326e-05
-1.08833e-06
4.66724e-05
5.07957e-06
4.60816e-05
1.24815e-05
4.47931e-05
2.11307e-05
4.26567e-05
3.09993e-05
3.97899e-05
4.12097e-05
3.61996e-05
5.33898e-05
2.6957e-05
6.49607e-05
7.47926e-05
3.65688e-07
1.01154e-05
4.10156e-06
-2.38281e-05
9.63454e-06
-4.48969e-05
1.50793e-05
-4.98036e-05
1.97061e-05
-4.51849e-05
2.36245e-05
-3.78651e-05
2.71855e-05
-3.14554e-05
3.06255e-05
-2.68621e-05
3.4006e-05
-2.37047e-05
3.72721e-05
-2.12613e-05
4.03194e-05
-1.88709e-05
4.30339e-05
-1.60442e-05
4.53063e-05
-1.24512e-05
4.70283e-05
-7.87124e-06
4.81091e-05
-2.16916e-06
4.85081e-05
4.6806e-06
4.81477e-05
1.28419e-05
4.70501e-05
2.22284e-05
4.51432e-05
3.29062e-05
4.20708e-05
4.42821e-05
3.73237e-05
5.81369e-05
2.78506e-05
7.44338e-05
0.000102643
2.01892e-06
-2.01892e-06
-2.72743e-06
4.74662e-06
-1.53475e-05
1.26199e-05
-2.07188e-05
5.37133e-06
-2.94027e-05
8.68386e-06
-3.55085e-05
6.10593e-06
-3.99045e-05
4.39591e-06
-4.3024e-05
3.1196e-06
-4.45983e-05
1.57454e-06
-4.46455e-05
4.72411e-08
-4.32807e-05
-1.36487e-06
-4.07952e-05
-2.48544e-06
-3.7285e-05
-3.51035e-06
-3.28637e-05
-4.42154e-06
-2.75776e-05
-5.28583e-06
-2.15093e-05
-6.06836e-06
-1.47804e-05
-6.72891e-06
-7.49045e-06
-7.28964e-06
-7.49032e-06
4.40026e-06
-6.41932e-06
8.66214e-07
8.28094e-06
-1.2745e-05
2.6231e-05
-1.93451e-05
1.19716e-05
-2.91497e-05
1.84882e-05
-3.55614e-05
1.25178e-05
-3.95869e-05
8.42162e-06
-4.22125e-05
5.74519e-06
-4.34679e-05
2.8302e-06
-4.3156e-05
-2.64645e-07
-4.14253e-05
-3.09586e-06
-3.82923e-05
-5.6185e-06
-3.40169e-05
-7.78568e-06
-2.89315e-05
-9.50725e-06
-2.33837e-05
-1.08334e-05
-1.76179e-05
-1.18339e-05
-1.17707e-05
-1.2576e-05
-5.84734e-06
-1.32128e-05
-1.33375e-05
2.72587e-06
-9.1453e-06
1.60922e-06
9.3977e-06
-1.35709e-05
4.14111e-05
-1.94904e-05
1.78911e-05
-2.92611e-05
2.82587e-05
-3.56046e-05
1.88615e-05
-3.97456e-05
1.25628e-05
-4.26398e-05
8.63922e-06
-4.40082e-05
4.19868e-06
-4.37427e-05
-5.30163e-07
-4.20059e-05
-4.83298e-06
-3.89422e-05
-8.68229e-06
-3.47432e-05
-1.19846e-05
-2.96506e-05
-1.46001e-05
-2.39798e-05
-1.65041e-05
-1.80258e-05
-1.77874e-05
-1.19854e-05
-1.86163e-05
-5.9417e-06
-1.92563e-05
-1.92791e-05
-1.56161e-06
-7.58376e-06
-1.86693e-06
9.70295e-06
-1.72414e-05
5.67855e-05
-2.05606e-05
2.12103e-05
-3.02381e-05
3.7936e-05
-3.68268e-05
2.54502e-05
-4.05178e-05
1.62538e-05
-4.34817e-05
1.16029e-05
-4.48527e-05
5.56958e-06
-4.45642e-05
-8.18537e-07
-4.27488e-05
-6.64863e-06
-3.96285e-05
-1.18028e-05
-3.54017e-05
-1.62114e-05
-3.03099e-05
-1.96919e-05
-2.46324e-05
-2.21815e-05
-1.86225e-05
-2.37968e-05
-1.24524e-05
-2.4786e-05
-6.17789e-06
-2.55308e-05
-2.54569e-05
-5.02304e-06
-2.56075e-06
-5.22128e-06
9.90098e-06
-2.42984e-05
7.58625e-05
-2.23441e-05
1.92559e-05
-3.14524e-05
4.70441e-05
-3.83811e-05
3.23787e-05
-4.15708e-05
1.94434e-05
-4.45843e-05
1.4616e-05
-4.60072e-05
6.99229e-06
-4.56615e-05
-1.16414e-06
-4.37206e-05
-8.58969e-06
-4.04648e-05
-1.50589e-05
-3.6069e-05
-2.06072e-05
-3.0851e-05
-2.49099e-05
-2.50715e-05
-2.79609e-05
-1.89754e-05
-2.98922e-05
-1.27048e-05
-3.10563e-05
-6.33459e-06
-3.19011e-05
-3.17914e-05
-6.85236e-06
4.29163e-06
-7.6974e-06
1.07458e-05
-3.23299e-05
0.000100495
-2.60053e-05
1.29312e-05
-3.29542e-05
5.39928e-05
-4.078e-05
4.02042e-05
-4.29887e-05
2.16519e-05
-4.5813e-05
1.74401e-05
-4.75699e-05
8.74904e-06
-4.70689e-05
-1.66505e-06
-4.49614e-05
-1.06973e-05
-4.15216e-05
-1.8499e-05
-3.69177e-05
-2.52111e-05
-3.14587e-05
-3.03687e-05
-2.54868e-05
-3.39325e-05
-1.92498e-05
-3.61287e-05
-1.28877e-05
-3.7418e-05
-6.42835e-06
-3.83607e-05
-3.82199e-05
-2.79022e-05
3.21938e-05
-3.03831e-05
1.32264e-05
-5.46933e-05
0.000124805
-2.86811e-05
-1.3081e-05
-3.24965e-05
5.7808e-05
-4.34914e-05
5.11989e-05
-4.41286e-05
2.22889e-05
-4.70325e-05
2.0344e-05
-4.9225e-05
1.09414e-05
-4.86546e-05
-2.23534e-06
-4.64058e-05
-1.29462e-05
-4.28067e-05
-2.20983e-05
-3.79467e-05
-3.0071e-05
-3.21856e-05
-3.61295e-05
-2.59641e-05
-4.01537e-05
-1.95424e-05
-4.255e-05
-1.30617e-05
-4.38987e-05
-6.50639e-06
-4.49163e-05
-4.47264e-05
-6.5743e-05
9.79369e-05
-5.47681e-05
2.25107e-06
-7.386e-05
0.000143897
-3.32243e-05
-5.37166e-05
-3.25156e-05
5.70991e-05
-4.80427e-05
6.67258e-05
-4.56906e-05
1.99366e-05
-4.79809e-05
2.26344e-05
-5.11761e-05
1.41367e-05
-5.01308e-05
-3.28054e-06
-4.76964e-05
-1.53807e-05
-4.417e-05
-2.56248e-05
-3.91603e-05
-3.50806e-05
-3.30571e-05
-4.22324e-05
-2.65095e-05
-4.6701e-05
-1.98849e-05
-4.91746e-05
-1.32498e-05
-5.05338e-05
-6.59531e-06
-5.15711e-05
-5.13217e-05
3.01842e-06
7.09702e-06
1.17657e-05
-3.25754e-05
2.29515e-05
-5.60827e-05
3.33181e-05
-6.01702e-05
4.20537e-05
-5.39205e-05
4.98288e-05
-4.56403e-05
5.74251e-05
-3.90516e-05
6.51533e-05
-3.45903e-05
7.29321e-05
-3.14834e-05
8.05103e-05
-2.88395e-05
8.76187e-05
-2.59793e-05
9.4038e-05
-2.24635e-05
9.96e-05
-1.80132e-05
0.000104114
-1.23855e-05
0.000107332
-5.38691e-06
0.000109323
2.68937e-06
0.00010965
1.25149e-05
0.000108279
2.35998e-05
0.00010522
3.59644e-05
0.000100171
4.93315e-05
9.33458e-05
6.49622e-05
8.66649e-05
8.11147e-05
0.00011083
7.84782e-05
6.89567e-06
2.01353e-07
1.72282e-05
-4.29079e-05
2.68134e-05
-6.56679e-05
3.47651e-05
-6.81219e-05
4.18521e-05
-6.10074e-05
4.90917e-05
-5.28799e-05
5.69242e-05
-4.68841e-05
6.52378e-05
-4.29039e-05
7.36779e-05
-3.99235e-05
8.18781e-05
-3.70397e-05
8.9555e-05
-3.36563e-05
9.6532e-05
-2.94405e-05
0.000102753
-2.42343e-05
0.000108333
-1.79658e-05
0.000113362
-1.04155e-05
0.000116414
-3.62806e-07
0.000118629
1.03002e-05
0.00011926
2.29687e-05
0.000118505
3.67195e-05
0.000116905
5.09311e-05
0.000115839
6.60288e-05
0.000115982
8.0971e-05
0.000104552
0.00012226
1.30485e-05
-1.28471e-05
2.72108e-05
-5.70703e-05
3.40539e-05
-7.2511e-05
3.75235e-05
-7.15916e-05
4.2251e-05
-6.57348e-05
4.93157e-05
-5.99446e-05
5.79383e-05
-5.55067e-05
6.7228e-05
-5.21936e-05
7.66e-05
-4.92955e-05
8.56938e-05
-4.61334e-05
9.42714e-05
-4.2234e-05
0.000102142
-3.73115e-05
0.000109041
-3.11332e-05
0.000114644
-2.35682e-05
0.000118878
-1.46499e-05
0.000123422
-4.90616e-06
0.00012653
7.19196e-06
0.000127735
2.1763e-05
0.000128296
3.61585e-05
0.000128967
5.026e-05
0.000130575
6.44209e-05
0.000132579
7.89677e-05
9.47127e-05
0.000142418
2.30818e-05
-3.59289e-05
4.38116e-05
-7.78001e-05
4.60251e-05
-7.47245e-05
4.27859e-05
-6.83524e-05
4.47658e-05
-6.77148e-05
5.2217e-05
-6.73958e-05
6.21105e-05
-6.54002e-05
7.26317e-05
-6.27148e-05
8.31749e-05
-5.98387e-05
9.36402e-05
-5.65988e-05
0.000104083
-5.26768e-05
0.000114514
-4.77428e-05
0.000124747
-4.13656e-05
0.000134754
-3.35749e-05
0.000144256
-2.41521e-05
0.000152341
-1.29913e-05
0.000155882
3.65079e-06
0.000155075
2.25707e-05
0.000152045
3.91879e-05
0.000148899
5.34064e-05
0.000146848
6.64715e-05
0.000146664
7.91522e-05
8.98213e-05
0.000151555
3.27587e-05
-6.86876e-05
5.67763e-05
-0.000101818
5.40119e-05
-7.196e-05
4.5861e-05
-6.02015e-05
4.43989e-05
-6.62527e-05
5.02834e-05
-7.32803e-05
5.83451e-05
-7.34619e-05
6.64766e-05
-7.08463e-05
7.41662e-05
-6.75284e-05
8.14196e-05
-6.38521e-05
8.76206e-05
-5.88778e-05
9.01944e-05
-5.03167e-05
9.34535e-05
-4.46248e-05
0.000103298
-4.34195e-05
0.000120396
-4.12502e-05
0.000144187
-3.67817e-05
0.000166192
-1.83542e-05
0.000178757
1.00053e-05
0.000179251
3.86933e-05
0.000175716
5.69415e-05
0.000171604
7.05843e-05
0.000167239
8.35167e-05
9.08487e-05
0.000166212
3.70975e-05
-0.000105785
3.12812e-05
-9.60014e-05
2.92396e-05
-6.99184e-05
2.56508e-05
-5.66127e-05
2.16365e-05
-6.22382e-05
1.8119e-05
-6.97628e-05
1.59012e-05
-7.12441e-05
1.41401e-05
-6.90852e-05
1.33765e-05
-6.67647e-05
1.50938e-05
-6.55694e-05
2.1418e-05
-6.52021e-05
3.44692e-05
-6.33679e-05
4.92177e-05
-5.93734e-05
6.03609e-05
-5.45628e-05
7.34443e-05
-5.43336e-05
9.22493e-05
-5.55867e-05
0.000124277
-5.03821e-05
0.000156712
-2.24289e-05
0.000179289
1.61158e-05
0.000185419
5.08112e-05
0.000179723
7.62801e-05
0.000171829
9.14114e-05
8.87013e-05
0.000173976
-2.03894e-05
-8.53957e-05
-1.94756e-05
-9.6915e-05
-1.36404e-05
-7.57534e-05
1.49718e-07
-7.04027e-05
6.31136e-06
-6.83998e-05
6.38863e-06
-6.984e-05
5.11202e-06
-6.99675e-05
4.82309e-06
-6.87962e-05
6.45576e-06
-6.83974e-05
1.09061e-05
-7.00198e-05
1.87952e-05
-7.30914e-05
3.007e-05
-7.46428e-05
4.18629e-05
-7.11664e-05
5.10469e-05
-6.37467e-05
6.37943e-05
-6.70809e-05
8.72214e-05
-7.90137e-05
0.00011905
-8.22103e-05
0.000157657
-6.10358e-05
0.00019521
-2.14372e-05
0.000217332
2.86883e-05
0.000221741
7.18712e-05
0.00021152
0.000101633
0.000108727
0.000191494
-2.05878e-05
-6.48077e-05
-1.95232e-05
-9.79795e-05
-8.9763e-06
-8.63003e-05
-2.28129e-06
-7.70976e-05
2.00998e-06
-7.2691e-05
4.05262e-06
-7.18826e-05
5.13128e-06
-7.10461e-05
6.35534e-06
-7.00203e-05
8.37536e-06
-7.04175e-05
1.15969e-05
-7.32414e-05
1.62856e-05
-7.77801e-05
2.28363e-05
-8.11936e-05
3.03822e-05
-7.87123e-05
3.74679e-05
-7.08324e-05
4.88021e-05
-7.8415e-05
7.32872e-05
-0.000103499
0.000102682
-0.000111605
0.000135899
-9.42524e-05
0.000170135
-5.56737e-05
0.000202256
-3.43301e-06
0.000216019
5.81091e-05
0.000211539
0.000106113
0.000124618
0.000195648
-7.07182e-06
-5.77358e-05
-5.74934e-06
-9.93019e-05
-3.11419e-06
-8.89354e-05
-3.98273e-07
-7.98135e-05
2.7705e-06
-7.58598e-05
5.29476e-06
-7.44068e-05
7.23615e-06
-7.29874e-05
8.79783e-06
-7.15819e-05
1.00523e-05
-7.1672e-05
1.10921e-05
-7.42813e-05
1.2213e-05
-7.89011e-05
1.43241e-05
-8.33047e-05
1.857e-05
-8.29582e-05
2.59028e-05
-7.81651e-05
3.21823e-05
-8.46945e-05
3.83164e-05
-0.000109633
4.80977e-05
-0.000121386
6.66031e-05
-0.000112758
9.2494e-05
-8.15646e-05
0.000114327
-2.52665e-05
0.000132341
4.00955e-05
0.000145513
9.29406e-05
0.000119557
0.000150575
-9.66419e-07
-5.67694e-05
-1.5874e-06
-9.8681e-05
-5.04875e-07
-9.00179e-05
1.59614e-06
-8.19146e-05
4.27578e-06
-7.85394e-05
6.82827e-06
-7.69593e-05
9.10466e-06
-7.52638e-05
1.10149e-05
-7.34922e-05
1.22556e-05
-7.29127e-05
1.26035e-05
-7.46292e-05
1.21196e-05
-7.84172e-05
1.15266e-05
-8.27116e-05
1.27474e-05
-8.41789e-05
1.69077e-05
-8.23253e-05
1.73726e-05
-8.51593e-05
9.88507e-06
-0.000102145
1.94296e-06
-0.000113444
-6.42804e-06
-0.000104387
-5.78055e-06
-8.22121e-05
9.03229e-06
-4.00794e-05
3.00152e-05
1.91125e-05
5.35584e-05
6.93973e-05
9.67951e-05
7.63197e-05
1.25614e-06
-5.80255e-05
1.01524e-06
-9.84401e-05
1.76659e-06
-9.07693e-05
3.53485e-06
-8.36828e-05
5.97561e-06
-8.09802e-05
8.5424e-06
-7.9526e-05
1.11624e-05
-7.78838e-05
1.37308e-05
-7.60606e-05
1.58173e-05
-7.49992e-05
1.69088e-05
-7.57208e-05
1.67677e-05
-7.82761e-05
1.57338e-05
-8.16777e-05
1.54774e-05
-8.39224e-05
1.75678e-05
-8.44157e-05
1.8038e-05
-8.56294e-05
8.98144e-06
-9.30883e-05
-4.73845e-06
-9.97241e-05
-1.64419e-05
-9.26832e-05
-2.67989e-05
-7.18551e-05
-3.00427e-05
-3.68356e-05
-1.1215e-05
2.84725e-07
2.41981e-05
3.39843e-05
4.78185e-05
7.31748e-05
2.33e-06
-6.03555e-05
2.7079e-06
-9.8818e-05
3.48633e-06
-9.15477e-05
5.24401e-06
-8.54405e-05
7.57427e-06
-8.33104e-05
1.01625e-05
-8.21143e-05
1.30209e-05
-8.07421e-05
1.61391e-05
-7.91788e-05
1.91576e-05
-7.80177e-05
2.14697e-05
-7.8033e-05
2.26599e-05
-7.94663e-05
2.27516e-05
-8.17694e-05
2.26931e-05
-8.38638e-05
2.34197e-05
-8.51423e-05
2.37454e-05
-8.5955e-05
1.84572e-05
-8.78001e-05
7.14434e-06
-8.84112e-05
-1.93944e-07
-8.53449e-05
2.16e-06
-7.42091e-05
1.3411e-05
-4.80867e-05
3.19587e-05
-1.8263e-05
5.94684e-05
6.47458e-06
2.2628e-05
8.46589e-05
2.81542e-06
-6.31709e-05
3.67621e-06
-9.96787e-05
4.74538e-06
-9.26168e-05
6.59537e-06
-8.72904e-05
8.90467e-06
-8.56196e-05
1.14806e-05
-8.46901e-05
1.43732e-05
-8.36348e-05
1.7648e-05
-8.24536e-05
2.10924e-05
-8.14622e-05
2.4196e-05
-8.11367e-05
2.64732e-05
-8.17435e-05
2.77118e-05
-8.3008e-05
2.8126e-05
-8.4278e-05
2.79954e-05
-8.50116e-05
2.70217e-05
-8.49814e-05
2.34742e-05
-8.42526e-05
1.66822e-05
-8.16192e-05
7.11087e-06
-7.57736e-05
-1.87679e-06
-6.52215e-05
-1.75798e-06
-4.82055e-05
8.44207e-06
-2.84631e-05
2.47866e-05
-9.86988e-06
4.7484e-06
4.26662e-05
3.00017e-06
-6.61711e-05
4.26559e-06
-0.000100944
5.65698e-06
-9.40082e-05
7.6433e-06
-8.92767e-05
9.98064e-06
-8.79569e-05
1.25353e-05
-8.72448e-05
1.53354e-05
-8.6435e-05
1.84447e-05
-8.55628e-05
2.17702e-05
-8.47877e-05
2.49748e-05
-8.43414e-05
2.76171e-05
-8.43858e-05
2.93945e-05
-8.47854e-05
3.02496e-05
-8.51331e-05
3.02212e-05
-8.49832e-05
2.92913e-05
-8.40515e-05
2.71122e-05
-8.20734e-05
2.38889e-05
-7.8396e-05
2.02561e-05
-7.21408e-05
1.777e-05
-6.27355e-05
1.96278e-05
-5.00633e-05
2.69519e-05
-3.57872e-05
3.91144e-05
-2.20324e-05
-1.04911e-05
5.43539e-05
3.00649e-06
-6.91775e-05
4.64449e-06
-0.000102582
6.32898e-06
-9.56926e-05
8.45641e-06
-9.14041e-05
1.08446e-05
-9.03451e-05
1.33958e-05
-8.9796e-05
1.6104e-05
-8.91433e-05
1.89893e-05
-8.84481e-05
2.20081e-05
-8.78066e-05
2.49694e-05
-8.73028e-05
2.75667e-05
-8.69832e-05
2.95466e-05
-8.67653e-05
3.08233e-05
-8.64099e-05
3.14348e-05
-8.55947e-05
3.14331e-05
-8.40499e-05
3.08557e-05
-8.1496e-05
3.0021e-05
-7.75614e-05
2.96295e-05
-7.17493e-05
3.07102e-05
-6.38162e-05
3.45941e-05
-5.39472e-05
4.18892e-05
-4.30823e-05
5.23199e-05
-3.24631e-05
-2.31031e-05
6.4932e-05
2.97333e-06
-7.21508e-05
4.90982e-06
-0.000104518
6.83338e-06
-9.76161e-05
9.09003e-06
-9.36607e-05
1.15431e-05
-9.27982e-05
1.41189e-05
-9.23718e-05
1.67979e-05
-9.18223e-05
1.9566e-05
-9.12163e-05
2.23844e-05
-9.06249e-05
2.51504e-05
-9.00689e-05
2.77003e-05
-8.95331e-05
2.98814e-05
-8.89465e-05
3.16291e-05
-8.81576e-05
3.29862e-05
-8.69519e-05
3.4037e-05
-8.51007e-05
3.49151e-05
-8.23743e-05
3.58919e-05
-7.85383e-05
3.74924e-05
-7.33499e-05
4.04087e-05
-6.67325e-05
4.53624e-05
-5.89009e-05
5.27151e-05
-5.0435e-05
6.23186e-05
-4.20665e-05
-3.43475e-05
7.3563e-05
2.9477e-06
-7.50984e-05
5.1078e-06
-0.000106678
7.21875e-06
-9.9727e-05
9.59116e-06
-9.60331e-05
1.21155e-05
-9.53226e-05
1.47353e-05
-9.49916e-05
1.74355e-05
-9.45226e-05
2.01957e-05
-9.39765e-05
2.29776e-05
-9.34069e-05
2.57236e-05
-9.28149e-05
2.83589e-05
-9.21684e-05
3.08122e-05
-9.13999e-05
3.30526e-05
-9.0398e-05
3.51145e-05
-8.90138e-05
3.70954e-05
-8.70817e-05
3.9153e-05
-8.44319e-05
4.15212e-05
-8.09067e-05
4.45625e-05
-7.63912e-05
4.87191e-05
-7.08892e-05
5.44039e-05
-6.45857e-05
6.18332e-05
-5.78643e-05
7.09377e-05
-5.1171e-05
-4.47839e-05
8.1374e-05
2.94374e-06
-7.80421e-05
5.26375e-06
-0.000108998
7.51754e-06
-0.000101981
9.991e-06
-9.85065e-05
1.25873e-05
-9.7919e-05
1.52602e-05
-9.76644e-05
1.80045e-05
-9.72669e-05
2.08089e-05
-9.67811e-05
2.36472e-05
-9.62452e-05
2.6485e-05
-9.56528e-05
2.9287e-05
-9.49705e-05
3.20272e-05
-9.41401e-05
3.47049e-05
-9.30758e-05
3.73612e-05
-9.16702e-05
4.00853e-05
-8.98059e-05
4.30199e-05
-8.73667e-05
4.63667e-05
-8.42535e-05
5.03868e-05
-8.04114e-05
5.53708e-05
-7.58732e-05
6.15724e-05
-7.07873e-05
6.91286e-05
-6.54206e-05
7.80071e-05
-6.00496e-05
-5.47701e-05
8.79934e-05
2.9625e-06
-8.10046e-05
5.38977e-06
-0.000111426
7.75017e-06
-0.000104341
1.03095e-05
-0.000101066
1.29747e-05
-0.000100584
1.57049e-05
-0.000100395
1.85029e-05
-0.000100065
2.13682e-05
-9.96464e-05
2.42898e-05
-9.91669e-05
2.72514e-05
-9.86144e-05
3.02389e-05
-9.7958e-05
3.32491e-05
-9.71504e-05
3.63008e-05
-9.61275e-05
3.94436e-05
-9.48131e-05
4.27626e-05
-9.3125e-05
4.63813e-05
-9.09855e-05
5.0462e-05
-8.83343e-05
5.51996e-05
-8.51489e-05
6.07946e-05
-8.14683e-05
6.74124e-05
-7.74052e-05
7.51419e-05
-7.31501e-05
8.39638e-05
-6.88715e-05
-6.4553e-05
9.37467e-05
2.99811e-06
-8.40026e-05
5.49126e-06
-0.000113919
7.9294e-06
-0.000106779
1.05599e-05
-0.000103696
1.32871e-05
-0.000103311
1.60747e-05
-0.000103182
1.8931e-05
-0.000102921
2.18632e-05
-0.000102579
2.48726e-05
-0.000102176
2.79583e-05
-0.0001017
3.11226e-05
-0.000101122
3.43773e-05
-0.000100405
3.77514e-05
-9.95017e-05
4.12973e-05
-9.8359e-05
4.50943e-05
-9.69221e-05
4.92491e-05
-9.51405e-05
5.38923e-05
-9.29776e-05
5.91689e-05
-9.04256e-05
6.52206e-05
-8.752e-05
7.21625e-05
-8.4347e-05
8.006e-05
-8.10476e-05
8.89055e-05
-7.7717e-05
-7.42685e-05
9.86211e-05
3.04333e-06
-8.7046e-05
5.56972e-06
-0.000116445
8.06174e-06
-0.000109271
1.07489e-05
-0.000106384
1.3528e-05
-0.000106091
1.63679e-05
-0.000106022
1.92814e-05
-0.000105835
2.22816e-05
-0.000105579
2.53778e-05
-0.000105273
2.85801e-05
-0.000104903
3.19024e-05
-0.000104445
3.53668e-05
-0.00010387
3.90085e-05
-0.000103143
4.28798e-05
-0.00010223
4.70524e-05
-0.000101095
5.16171e-05
-9.97052e-05
5.668e-05
-9.80405e-05
6.23544e-05
-9.60999e-05
6.87471e-05
-9.39127e-05
7.59457e-05
-9.15456e-05
8.40046e-05
-8.91065e-05
9.29258e-05
-8.66381e-05
-8.40114e-05
0.000102669
3.09108e-06
-9.0137e-05
5.62357e-06
-0.000118977
8.1498e-06
-0.000111797
1.08788e-05
-0.000109113
1.36977e-05
-0.000108909
1.65803e-05
-0.000108905
1.95435e-05
-0.000108798
2.26048e-05
-0.00010864
2.57793e-05
-0.000108447
2.90838e-05
-0.000108207
3.25395e-05
-0.0001079
3.61746e-05
-0.000107505
4.00279e-05
-0.000106997
4.41504e-05
-0.000106353
4.86073e-05
-0.000105552
5.3477e-05
-0.000104575
5.88482e-05
-0.000103412
6.48132e-05
-0.000102065
7.14584e-05
-0.000100558
7.88573e-05
-9.89444e-05
8.706e-05
-9.73091e-05
9.60787e-05
-9.56567e-05
-9.38344e-05
0.000105902
3.13487e-06
-9.32719e-05
5.65039e-06
-0.000121493
8.19458e-06
-0.000114342
1.095e-05
-0.000111868
1.3795e-05
-0.000111755
1.67073e-05
-0.000111817
1.97073e-05
-0.000111798
2.28161e-05
-0.000111749
2.60528e-05
-0.000111684
2.94384e-05
-0.000111593
3.29983e-05
-0.00011146
3.67642e-05
-0.000111271
4.0776e-05
-0.000111008
4.50828e-05
-0.00011066
4.97444e-05
-0.000110213
5.483e-05
-0.00010966
6.04164e-05
-0.000108998
6.6583e-05
-0.000108231
7.34047e-05
-0.00010738
8.09483e-05
-0.000106488
8.92655e-05
-0.000105626
9.83811e-05
-0.000104772
-0.000103763
0.00010831
3.1685e-06
-9.64403e-05
5.64921e-06
-0.000123974
8.19746e-06
-0.00011689
1.09633e-05
-0.000114634
1.38188e-05
-0.00011461
1.67451e-05
-0.000114743
1.97658e-05
-0.000114819
2.29044e-05
-0.000114888
2.61824e-05
-0.000114962
2.96234e-05
-0.000115034
3.32552e-05
-0.000115092
3.71108e-05
-0.000115126
4.12302e-05
-0.000115128
4.56603e-05
-0.00011509
5.0456e-05
-0.000115009
5.56799e-05
-0.000114884
6.14006e-05
-0.000114719
6.76898e-05
-0.000114521
7.4617e-05
-0.000114307
8.22468e-05
-0.000114118
9.0636e-05
-0.000114015
9.98253e-05
-0.000113961
-0.000113793
0.000109855
3.18721e-06
-9.96275e-05
5.62241e-06
-0.000126409
8.16197e-06
-0.000119429
1.09215e-05
-0.000117393
1.37702e-05
-0.000117459
1.66929e-05
-0.000117666
1.97156e-05
-0.000117842
2.2863e-05
-0.000118035
2.6158e-05
-0.000118257
2.96257e-05
-0.000118501
3.32949e-05
-0.000118761
3.71991e-05
-0.00011903
4.13772e-05
-0.000119306
4.58737e-05
-0.000119586
5.07394e-05
-0.000119874
5.60316e-05
-0.000120176
6.18133e-05
-0.0001205
6.81515e-05
-0.000120859
7.51131e-05
-0.000121268
8.2764e-05
-0.000121768
9.11683e-05
-0.000122419
0.000100386
-0.000123179
-0.000123888
0.000110481
3.18962e-06
-0.000102817
5.57527e-06
-0.000128794
8.0935e-06
-0.000121948
1.08295e-05
-0.000120129
1.36528e-05
-0.000120282
1.65529e-05
-0.000120566
1.95571e-05
-0.000120846
2.26901e-05
-0.000121168
2.59757e-05
-0.000121543
2.94394e-05
-0.000121965
3.31104e-05
-0.000122432
3.70217e-05
-0.000122942
4.12108e-05
-0.000123495
4.57198e-05
-0.000124095
5.05957e-05
-0.00012475
5.58912e-05
-0.000125472
6.16649e-05
-0.000126274
6.79802e-05
-0.000127174
7.4903e-05
-0.000128191
8.2501e-05
-0.000129366
9.08467e-05
-0.000130765
0.000100021
-0.000132353
-0.000133976
0.00011011
3.17882e-06
-0.000105996
5.51348e-06
-0.000131129
7.99661e-06
-0.000124431
1.0691e-05
-0.000122824
1.34705e-05
-0.000123062
1.63289e-05
-0.000123425
1.92933e-05
-0.000123811
2.23881e-05
-0.000124263
2.5637e-05
-0.000124792
2.90656e-05
-0.000125394
3.27026e-05
-0.000126069
3.65802e-05
-0.000126819
4.07341e-05
-0.000127649
4.52038e-05
-0.000128565
5.00331e-05
-0.00012958
5.52703e-05
-0.000130709
6.09695e-05
-0.000131973
6.71902e-05
-0.000133395
7.39969e-05
-0.000134998
8.14584e-05
-0.000136828
8.96535e-05
-0.00013896
9.86825e-05
-0.000141382
-0.000143944
0.000108651
3.16095e-06
-0.000109157
5.43949e-06
-0.000133408
7.87104e-06
-0.000126862
1.05058e-05
-0.000125458
1.32238e-05
-0.00012578
1.6022e-05
-0.000126223
1.89263e-05
-0.000126715
2.19601e-05
-0.000127297
2.51464e-05
-0.000127978
2.85104e-05
-0.000128758
3.20798e-05
-0.000129638
3.58855e-05
-0.000130625
3.99611e-05
-0.000131724
4.43437e-05
-0.000132947
4.90735e-05
-0.000134309
5.41945e-05
-0.00013583
5.97557e-05
-0.000137534
6.58117e-05
-0.000139451
7.24235e-05
-0.000141609
7.96581e-05
-0.000144062
8.75957e-05
-0.000146897
9.63486e-05
-0.000150135
-0.000153635
0.000106039
3.14178e-06
-0.000112299
5.34969e-06
-0.000135615
7.71006e-06
-0.000129223
1.02682e-05
-0.000128016
1.29079e-05
-0.000128419
1.56287e-05
-0.000128944
1.84543e-05
-0.000129541
2.14068e-05
-0.00013025
2.4508e-05
-0.000131079
2.7782e-05
-0.000132031
3.12551e-05
-0.000133111
3.49565e-05
-0.000134326
3.89173e-05
-0.000135685
4.31717e-05
-0.000137202
4.77562e-05
-0.000138894
5.27102e-05
-0.000140784
5.80771e-05
-0.000142901
6.39049e-05
-0.000145278
7.02488e-05
-0.000147953
7.71699e-05
-0.000150983
8.47421e-05
-0.000154469
9.30782e-05
-0.000158471
-0.000162865
0.000102308
3.12345e-06
-0.000115422
5.23423e-06
-0.000137726
7.50244e-06
-0.000131491
9.96802e-06
-0.000130482
1.25139e-05
-0.000130965
1.51408e-05
-0.000131571
1.78709e-05
-0.000132271
2.07245e-05
-0.000133103
2.37222e-05
-0.000134077
2.68863e-05
-0.000135195
3.02412e-05
-0.000136466
3.38137e-05
-0.000137898
3.76323e-05
-0.000139503
4.17276e-05
-0.000141297
4.61322e-05
-0.000143298
5.08808e-05
-0.000145533
5.60105e-05
-0.000148031
6.1562e-05
-0.00015083
6.75817e-05
-0.000153973
7.41207e-05
-0.000157522
8.12385e-05
-0.000161587
8.90341e-05
-0.000166266
-0.000171463
9.76331e-05
3.10395e-06
-0.000118526
5.08019e-06
-0.000139703
7.2359e-06
-0.000133647
9.59347e-06
-0.00013284
1.20296e-05
-0.000133402
1.45461e-05
-0.000134087
1.71643e-05
-0.000134889
1.99029e-05
-0.000135842
2.27809e-05
-0.000136955
2.58187e-05
-0.000138233
2.90385e-05
-0.000139686
3.24644e-05
-0.000141324
3.61218e-05
-0.000143161
4.00379e-05
-0.000145213
4.42411e-05
-0.000147501
4.87614e-05
-0.000150053
5.36294e-05
-0.000152899
5.88779e-05
-0.000156078
6.45431e-05
-0.000159638
7.06628e-05
-0.000163642
7.72762e-05
-0.0001682
8.44536e-05
-0.000173444
-0.000179311
9.2301e-05
3.07932e-06
-0.000121605
4.87553e-06
-0.000141499
6.8989e-06
-0.00013567
9.13191e-06
-0.000135073
1.14403e-05
-0.00013571
1.38278e-05
-0.000136475
1.63154e-05
-0.000137376
1.89206e-05
-0.000138447
2.16607e-05
-0.000139695
2.45544e-05
-0.000141127
2.76218e-05
-0.000142753
3.08841e-05
-0.000144586
3.43642e-05
-0.000146641
3.80859e-05
-0.000148935
4.20742e-05
-0.00015149
4.63544e-05
-0.000154333
5.09515e-05
-0.000157496
5.58906e-05
-0.000161017
6.1198e-05
-0.000164945
6.68977e-05
-0.000169341
7.30063e-05
-0.000174309
7.95531e-05
-0.00017999
-0.000186366
8.66083e-05
3.04567e-06
-0.000124651
4.61097e-06
-0.000143064
6.48076e-06
-0.00013754
8.56985e-06
-0.000137162
1.07282e-05
-0.000137868
1.29635e-05
-0.00013871
1.52966e-05
-0.000139709
1.77435e-05
-0.000140894
2.03204e-05
-0.000142272
2.30445e-05
-0.000143851
2.59341e-05
-0.000145643
2.90085e-05
-0.000147661
3.22882e-05
-0.00014992
3.57947e-05
-0.000152441
3.95501e-05
-0.000155245
4.35764e-05
-0.000158359
4.7894e-05
-0.000161814
5.2523e-05
-0.000165646
5.74818e-05
-0.000169904
6.27835e-05
-0.000174643
6.84251e-05
-0.00017995
7.43936e-05
-0.000185959
-0.000192682
8.07101e-05
2.99819e-06
-0.000127649
4.27995e-06
-0.000144346
5.97317e-06
-0.000139233
7.89455e-06
-0.000139083
9.8754e-06
-0.000139849
1.19299e-05
-0.000140765
1.40775e-05
-0.000141857
1.63332e-05
-0.00014315
1.8712e-05
-0.00014465
2.12302e-05
-0.000146369
2.39046e-05
-0.000148317
2.67531e-05
-0.000150509
2.97944e-05
-0.000152962
3.30484e-05
-0.000155695
3.65355e-05
-0.000158732
4.02756e-05
-0.0001621
4.42872e-05
-0.000165826
4.85881e-05
-0.000169947
5.31927e-05
-0.000174509
5.81085e-05
-0.000179559
6.33224e-05
-0.000185164
6.87933e-05
-0.00019143
-0.000198387
7.44975e-05
2.92787e-06
-0.000130577
3.87973e-06
-0.000145298
5.37496e-06
-0.000140728
7.10063e-06
-0.000140809
8.87405e-06
-0.000141623
1.07157e-05
-0.000142606
1.26434e-05
-0.000143785
1.46703e-05
-0.000145176
1.68106e-05
-0.000146791
1.90793e-05
-0.000148638
2.14919e-05
-0.00015073
2.40648e-05
-0.000153082
2.68153e-05
-0.000155712
2.97623e-05
-0.000158642
3.29252e-05
-0.000161896
3.63232e-05
-0.000165498
3.99746e-05
-0.000169477
4.38968e-05
-0.00017387
4.81042e-05
-0.000178716
5.26033e-05
-0.000184058
5.73839e-05
-0.000189945
6.24006e-05
-0.000196446
-0.0002036
6.76136e-05
2.81953e-06
-0.000133397
3.41521e-06
-0.000145893
4.69787e-06
-0.000142011
6.19968e-06
-0.000142311
7.73891e-06
-0.000143162
9.33911e-06
-0.000144207
1.10157e-05
-0.000145461
1.278e-05
-0.000146941
1.46445e-05
-0.000148655
1.66224e-05
-0.000150616
1.87278e-05
-0.000152835
2.09754e-05
-0.00015533
2.33813e-05
-0.000158118
2.59631e-05
-0.000161224
2.87393e-05
-0.000164672
3.17283e-05
-0.000168487
3.49482e-05
-0.000172697
3.84165e-05
-0.000177338
4.21486e-05
-0.000182448
4.61542e-05
-0.000188063
5.04323e-05
-0.000194223
5.49533e-05
-0.000200967
-0.000208338
5.96914e-05
2.65264e-06
-0.000136049
2.90103e-06
-0.000146142
3.96695e-06
-0.000143077
5.22357e-06
-0.000143568
6.51122e-06
-0.00014445
7.8512e-06
-0.000145547
9.25612e-06
-0.000146866
1.07349e-05
-0.00014842
1.22977e-05
-0.000150218
1.39563e-05
-0.000152274
1.57231e-05
-0.000154602
1.76111e-05
-0.000157218
1.96342e-05
-0.000160141
2.18081e-05
-0.000163398
2.41494e-05
-0.000167013
2.66748e-05
-0.000171012
2.94012e-05
-0.000175424
3.23453e-05
-0.000180282