/*--------------------------------*- C++ -*----------------------------------*\
| =========                 |                                                 |
| \\      /  F ield         | OpenFOAM: The Open Source CFD Toolbox           |
|  \\    /   O peration     | Version:  2206                                  |
|   \\  /    A nd           | Website:  www.openfoam.com                      |
|    \\/     M anipulation  |                                                 |
\*---------------------------------------------------------------------------*/
FoamFile
{
    version     2.0;
    format      ascii;
    arch        "LSB;label=32;scalar=64";
    class       volScalarField;
    location    "0.1";
    object      alpha.water;
}
// * * * * * * * * * * * * * * * * * * * * * * * * * * * * * * * * * * * * * //

dimensions      [0 0 0 0 0 0 0];

internalField   nonuniform List<scalar> 
2268
(
1
0.999999
1
1
1
0.999999
0.999999
1
1
1
1
1
1
1
1
0.999524
0.996063
0.996194
0.995648
0.836436
0.162597
0.00901231
0.00901231
1
1
1
1
0.999999
0.999999
1
1
1
1
1
1
1
1
0.999974
0.999975
0.99833
0.956781
0.811712
0.564784
0.142941
0.0108604
0.00901231
1
1
1
0.999999
1
1
1
1
1
1
1
1
1
0.999998
0.999998
0.999997
0.999937
0.823067
0.296438
0.0597986
0.093893
0.039775
0.0108604
1
1
1
1
1
1
1
1
1
1
1
1
1
1
1
0.999997
0.953026
0.54872
0.0778187
0.0109169
0.0246977
0.0389852
0.0143079
1
1
1
1
1
1
1
1
1
1
1
1
1
1
1
0.999961
0.726654
0.171719
0.0109123
0.00405491
0.00145198
0.0185619
0.0206373
1
1
1
1
1
1
1
1
1
1
1
1
1
1
0.999999
0.934443
0.358674
0.018622
0.00405422
0.00183356
0.000470579
0.00176201
0.0195555
1
1
1
1
1
1
1
1
1
1
1
1
1
1
0.99999
0.727161
0.103221
0.00572557
0.00152442
0.000612849
0.000138813
0.000428006
0.0144535
1
1
1
1
1
1
1
1
1
1
1
1
1
1
0.999921
0.461436
0.021711
0.00251893
0.000653827
0.000171328
3.23551e-05
0.000141943
0.00567381
3.60122e-17
1.15009e-17
1.9691e-18
1.24744e-19
4.42096e-21
1.78171e-22
9.09462e-24
4.59335e-25
2.07222e-26
8.29187e-28
2.93291e-29
9.04663e-31
2.38915e-32
5.27472e-34
9.40685e-36
1.28677e-37
1.23483e-39
6.43108e-42
3.2309e-42
1.14859e-15
7.95635e-16
2.20587e-16
1.33581e-17
3.40847e-19
1.16814e-20
5.38761e-22
2.52279e-23
1.08791e-24
4.24638e-26
1.4787e-27
4.50366e-29
1.17187e-30
2.52852e-32
4.32904e-34
5.47667e-36
4.41876e-38
1.41298e-40
3.2309e-42
5.17926e-14
3.3482e-14
9.00293e-15
5.3829e-16
1.25243e-17
3.80074e-19
1.51416e-20
6.34262e-22
2.53637e-23
9.36292e-25
3.11482e-26
9.10101e-28
2.26807e-29
4.64468e-31
7.35341e-33
8.03833e-35
6.18883e-37
2.52137e-39
9.61361e-41
7.22983e-13
7.02261e-13
2.71592e-13
1.8518e-14
3.54489e-16
8.82016e-18
3.03347e-19
1.13452e-20
4.17911e-22
1.44982e-23
4.58415e-25
1.27791e-26
3.02132e-28
5.72596e-30
8.99704e-32
1.12462e-33
9.40506e-36
3.46293e-38
2.26032e-39
3.09774e-12
1.45724e-11
9.3926e-12
5.85252e-13
7.57355e-15
1.52129e-16
4.69097e-18
1.58494e-19
5.3419e-21
1.72535e-22
5.13718e-24
1.34642e-25
3.11322e-27
6.375e-29
1.06743e-30
1.34011e-32
1.10358e-34
3.14296e-37
3.74497e-38
6.37655e-11
6.88357e-10
1.68669e-10
5.46225e-12
7.09882e-14
1.69194e-15
5.24882e-17
1.68171e-18
5.32345e-20
1.61722e-21
4.55605e-23
1.22523e-24
2.98372e-26
6.16822e-28
1.02575e-29
1.27615e-31
1.0336e-33
3.44816e-36
4.72907e-37
4.85018e-09
4.1087e-09
5.40375e-10
1.18441e-11
3.07528e-13
1.11052e-14
3.85134e-16
1.26977e-17
4.01798e-19
1.21295e-20
3.58282e-22
9.90187e-24
2.41372e-25
4.9649e-27
8.20154e-29
1.01098e-30
8.09434e-33
3.20011e-35
4.75191e-36
1.48043e-08
6.23136e-09
4.72023e-10
1.26999e-11
9.7375e-13
5.21598e-14
2.0303e-15
7.07292e-17
2.31668e-18
7.34067e-20
2.2566e-21
6.34462e-23
1.55326e-24
3.18992e-26
5.24171e-28
6.40803e-30
5.07577e-32
2.10668e-34
3.96924e-35
1
1
1
1
1
1
1
1
1
1
1
1
1
1
0.879003
0.182567
0.00443247
0.000738818
0.000151248
3.50563e-05
7.03133e-06
1.78454e-05
8.62199e-05
1
1
1
1
1
1
1
1
1
1
1
1
1
0.999998
0.519601
0.017531
0.00111132
0.000180837
2.90671e-05
5.97265e-06
9.79336e-07
2.47975e-06
1.54251e-05
1
1
1
1
1
1
1
1
1
1
1
1
1
0.948607
0.208677
0.00226525
0.000261677
3.96799e-05
6.97003e-06
1.32385e-06
2.4986e-07
3.58441e-07
2.48264e-06
1
1
1
1
1
1
1
1
1
1
1
1
1
0.750899
0.0623223
0.000643259
5.66986e-05
1.06579e-05
4.11252e-06
7.32193e-07
6.71215e-08
5.03304e-08
3.63583e-07
1
1
1
1
1
1
1
1
1
1
1
1
1
0.527025
0.00980762
0.000153431
1.11346e-05
3.43647e-06
1.89516e-06
4.87129e-07
2.68103e-08
7.59607e-09
4.99154e-08
1
1
1
1
1
1
1
1
1
1
1
1
1
0.321467
0.00104593
3.52124e-05
2.30482e-06
1.29924e-06
3.53398e-07
1.68001e-07
1.62789e-08
1.84697e-09
7.62075e-09
1
1
1
1
1
1
1
1
1
1
1
1
0.927679
0.190086
0.000373993
6.85618e-06
6.6617e-07
4.11918e-07
4.91331e-08
2.17151e-08
8.11708e-09
1.09571e-09
1.57951e-09
1
1
1
1
1
1
1
1
1
1
1
1
0.838376
0.103172
7.77656e-05
1.03678e-06
3.02662e-07
1.15589e-07
1.69241e-08
3.05805e-09
2.97416e-09
9.48436e-10
4.23687e-10
1
1
1
1
1
1
1
1
1
1
1
1
0.735668
0.0474508
8.19803e-06
1.39085e-07
5.37933e-08
3.18808e-08
7.69075e-09
1.76443e-09
1.24307e-09
5.80981e-10
1.94199e-10
1
1
1
1
1
1
1
1
1
1
1
0.999999
0.615346
0.0154758
6.19819e-07
2.15756e-08
1.29086e-08
1.05366e-08
3.30745e-09
1.02162e-09
5.33268e-10
2.39371e-10
8.77736e-11
1
1
1
1
1
1
0.999999
0.999999
0.999999
0.999999
0.999998
0.999996
0.469647
0.00171356
8.90214e-08
2.93054e-08
2.74533e-08
5.43256e-09
1.22718e-09
4.69628e-10
1.95101e-10
7.10248e-11
2.35824e-11
0.999999
0.999998
0.999998
0.999998
0.999997
0.999997
0.999996
0.999995
0.999993
0.99999
0.999986
0.999969
0.314004
2.76044e-05
3.33042e-07
3.10662e-07
3.15837e-08
1.637e-09
4.99539e-10
1.80326e-10
6.06414e-11
1.76426e-11
4.75084e-12
0.999986
0.999984
0.999983
0.999981
0.999978
0.999974
0.999967
0.999958
0.999946
0.999925
0.999898
0.999784
0.208007
2.54747e-06
2.03508e-07
3.6754e-07
2.73181e-08
2.0296e-10
2.32934e-10
6.35702e-11
1.68692e-11
3.98956e-12
8.7666e-13
0.999876
0.99986
0.999854
0.999838
0.999814
0.99978
0.999734
0.99967
0.999588
0.999447
0.999275
0.998504
0.176357
2.05452e-07
2.63477e-08
1.21206e-08
1.34373e-09
1.16658e-10
7.88683e-11
2.03003e-11
4.68073e-12
8.59587e-13
1.52654e-13
0.99889
0.998789
0.998737
0.998613
0.998432
0.998186
0.997859
0.997423
0.996877
0.994749
0.988284
0.922771
0.202289
0.00194163
1.95555e-07
2.63534e-08
2.80554e-09
4.7154e-11
5.53855e-12
4.10491e-12
1.32646e-12
2.04608e-13
2.64692e-14
0.878209
0.870162
0.8624
0.848392
0.828774
0.803023
0.77033
0.7291
0.680999
0.596604
0.508889
0.281882
0.198607
0.0207819
7.08671e-05
3.46232e-06
6.93096e-08
8.57667e-10
4.01185e-12
4.59062e-13
5.35283e-13
5.64424e-14
4.66537e-15
0.183481
0.174584
0.165852
0.151669
0.133733
0.112748
0.0898687
0.0667081
0.0448404
0.0143949
2.13615e-08
2.46493e-07
0.00761672
0.0340664
0.00337787
5.34086e-06
9.40289e-08
2.80491e-10
4.15127e-13
4.75151e-14
1.48371e-13
1.56976e-14
8.28176e-16
-7.2092e-19
-4.45817e-37
1.64452e-21
1.03615e-19
5.52728e-18
1.88092e-16
4.92371e-15
1.23797e-13
2.48429e-12
4.97094e-11
1.10517e-09
2.13615e-08
2.46493e-07
0.00752762
0.00562034
2.88106e-05
6.24752e-07
1.4572e-08
-1.83485e-13
8.8922e-15
1.00704e-13
4.05491e-15
1.32821e-16
1.23155e-20
1.08446e-20
2.50381e-19
2.52865e-17
1.08463e-15
2.16232e-14
6.4147e-13
5.45499e-12
8.73473e-11
2.74766e-09
7.28823e-08
1.07777e-06
1.12767e-05
2.17978e-05
0.00414527
1.65487e-07
2.30553e-09
2.84701e-10
8.12099e-15
5.32344e-15
7.94056e-14
8.05837e-16
1.68692e-17
1.22186e-20
1.27235e-20
6.05709e-19
1.29795e-16
4.8327e-15
5.79284e-14
1.35151e-12
2.68353e-12
6.56024e-11
1.60877e-09
3.20599e-08
1.01674e-06
1.98927e-05
0.00098472
0.00187213
2.25852e-08
3.0623e-11
3.20438e-13
3.67184e-15
5.0933e-15
3.70579e-14
1.00122e-16
1.6546e-18
8.13358e-21
4.18137e-21
9.16759e-20
1.90323e-16
6.2135e-15
2.12741e-14
4.20881e-14
-6.30568e-15
2.77784e-12
4.39551e-11
6.33217e-10
8.20809e-06
9.34045e-05
7.357e-05
4.54794e-06
2.2891e-09
8.23659e-12
-3.20575e-12
8.96232e-16
1.69005e-15
5.68038e-15
7.80479e-18
1.34361e-19
0
-1.10574e-37
-5.6614e-35
5.30657e-18
2.98067e-15
1.98229e-14
1.5019e-14
-3.38039e-16
-4.13509e-14
-2.99012e-14
5.65823e-12
8.12579e-11
1.52477e-09
5.18212e-09
1.38813e-08
1.43846e-10
-9.87424e-12
-7.74891e-14
-5.1375e-16
2.27188e-16
2.38575e-16
4.79627e-19
9.42588e-21
-6.51749e-22
-4.92695e-20
-1.76717e-18
-3.94895e-17
-5.97731e-16
-6.26463e-15
-4.46097e-14
-2.00386e-13
-4.11914e-13
-7.6119e-15
-3.34009e-14
2.26885e-12
9.92637e-12
3.08978e-11
1.83857e-10
7.03151e-12
-1.02041e-12
-2.07487e-14
-1.73275e-13
1.39364e-17
6.61906e-18
2.46559e-20
5.99202e-22
-6.79968e-22
-5.25595e-20
-1.95523e-18
-4.60737e-17
-7.54835e-16
-8.89721e-15
-7.55818e-14
-4.51438e-13
-1.78626e-12
-4.08544e-12
-3.13026e-12
1.4708e-12
3.20548e-12
1.04416e-11
2.15486e-11
2.2859e-12
7.1963e-15
-6.01848e-14
-1.19164e-13
8.53258e-20
1.25181e-19
8.68021e-22
3.78136e-23
-1.37525e-24
-4.7937e-23
-5.76244e-22
-1.57821e-21
-3.15749e-31
-8.15841e-30
-9.11788e-28
8.85163e-18
4.1244e-16
1.33178e-14
1.14492e-12
3.49428e-11
1.85682e-10
2.98605e-10
2.48177e-10
1.94045e-13
1.25103e-14
-1.67272e-14
-3.5191e-14
-1.47219e-18
2.82031e-21
9.17937e-24
2.39467e-24
-5.757e-29
0
0
-4.17954e-38
7.01805e-25
2.83546e-23
9.35937e-22
2.58243e-20
6.10366e-19
1.25355e-17
1.35806e-14
4.96412e-13
3.1755e-12
6.07777e-12
4.82828e-12
8.8944e-14
3.5914e-14
-3.32026e-15
-5.85466e-15
-5.20487e-19
7.03095e-23
2.52163e-25
1.61836e-25
0
4.92776e-34
5.43224e-32
3.95876e-30
2.13595e-28
9.09988e-27
-4.08283e-25
-1.53189e-23
-5.09522e-22
-1.03053e-20
1.14391e-16
5.17112e-15
3.75084e-14
7.27669e-14
6.96621e-14
8.24825e-15
1.0286e-14
-5.77785e-16
-6.05984e-16
-8.46349e-20
1.47118e-24
8.04613e-26
9.95027e-27
3.95965e-52
-1.01365e-49
7.38243e-35
5.27849e-33
2.88317e-31
-1.16149e-28
-4.34721e-27
-1.4359e-25
-2.94608e-24
-4.78883e-23
7.03407e-21
1.02296e-18
4.49905e-17
4.34885e-16
1.04371e-15
1.09433e-15
5.48643e-17
-4.86439e-17
-4.08312e-17
-8.31171e-21
1.20282e-25
8.58764e-27
5.41837e-28
-1.78209e-36
-4.03515e-35
-2.88171e-37
-4.26089e-35
-4.33894e-32
-1.74455e-30
-6.50184e-29
-1.53139e-27
-2.77611e-26
-1.01076e-25
1.27917e-23
2.54247e-21
1.64786e-19
2.36439e-18
7.146e-18
7.98294e-18
4.45817e-37
-1.85728e-18
-1.823e-18
-5.36308e-22
1.48345e-26
4.89837e-28
2.7224e-29
-1.11162e-38
-4.89125e-37
-7.36169e-36
-2.75563e-35
-1.21962e-42
7.11699e-37
3.26419e-35
1.28445e-33
4.36756e-32
1.34547e-30
4.02699e-27
1.48301e-24
1.29619e-22
2.89421e-21
1.25478e-20
1.72361e-20
-1.47162e-21
-3.23472e-20
-5.37716e-20
-2.35454e-23
9.01209e-28
2.13214e-29
1.24893e-30
0
0
0
0
6.68747e-42
4.08319e-40
2.08069e-38
8.66744e-37
3.30996e-35
1.13576e-33
1.45791e-31
1.21803e-28
6.82022e-27
5.41114e-25
1.58927e-23
7.52346e-23
8.64613e-23
-2.55529e-22
-1.02134e-21
-7.12229e-25
4.52265e-29
1.1469e-30
5.08169e-32
1.73054e-55
5.84239e-53
9.86841e-51
1.1032e-48
8.62193e-47
5.38006e-45
-1.02256e-41
-5.23309e-40
-2.70852e-38
-7.14397e-37
2.11068e-35
7.61185e-32
6.74444e-30
7.22345e-28
3.09544e-26
1.81525e-25
2.12818e-25
-1.05798e-24
-1.1747e-23
-1.47959e-26
1.62639e-30
4.77891e-32
1.85641e-33
5.07162e-59
1.93651e-56
3.55283e-54
4.23601e-52
3.6156e-50
-3.08014e-47
-1.46013e-45
-8.01728e-44
-2.73668e-42
-6.5809e-41
1.97447e-39
9.67982e-37
1.48371e-34
1.18571e-32
2.17797e-30
2.93302e-29
-9.69512e-29
-4.85403e-27
-7.09759e-26
-2.07902e-28
4.59201e-32
1.28067e-33
5.83979e-35
2.77595e-63
-2.38125e-59
-9.22323e-57
-1.73619e-54
-1.66369e-51
-6.93902e-50
-4.20153e-48
-1.69833e-46
-5.45017e-45
-6.13902e-44
4.06098e-43
5.90096e-41
1.06804e-37
9.61875e-36
2.0957e-33
1.1306e-31
4.10347e-31
-7.33351e-30
-1.4145e-28
-1.92107e-30
7.64626e-34
2.85207e-35
1.71217e-36
-2.70647e-64
-1.21e-61
-2.64953e-59
-3.84991e-57
1.13425e-59
1.17282e-57
1.02211e-55
7.74919e-54
4.52187e-52
2.674e-50
1.69019e-48
1.52077e-46
1.06424e-42
2.31331e-39
3.93891e-37
5.71158e-35
9.97065e-34
2.49993e-33
-4.46583e-34
-1.10732e-32
9.7831e-36
5.80043e-37
4.84082e-38
4.14221e-73
2.52005e-70
7.62641e-68
1.5425e-65
2.35374e-63
2.89957e-61
3.01385e-59
2.62219e-57
2.11394e-55
1.54021e-53
1.65656e-51
1.19258e-49
8.13774e-48
6.73076e-45
1.25551e-42
1.76903e-40
3.95729e-38
8.71593e-37
1.62797e-36
-3.6197e-35
1.15329e-37
1.05175e-38
1.18766e-39
3.7155e-78
2.76816e-75
1.0267e-72
2.53287e-70
4.67938e-68
6.92766e-66
-5.16173e-63
-4.86703e-61
-5.27795e-59
-2.76319e-57
9.61626e-56
1.09116e-53
8.19292e-52
8.88942e-50
4.94786e-46
1.78687e-43
6.61878e-41
2.40918e-39
7.87292e-39
-5.34012e-38
1.17201e-39
1.69778e-40
2.61545e-41
1.68059e-83
1.60327e-80
9.58446e-79
-2.5492e-75
-1.4318e-72
-1.10697e-68
-1.08453e-66
-1.34065e-64
-1.02283e-62
-5.61276e-61
5.7671e-60
7.88342e-58
7.72372e-56
7.23048e-54
9.73482e-52
1.24882e-47
8.36829e-45
1.31856e-42
1.5169e-41
1.73474e-41
8.34753e-42
2.47569e-42
5.32502e-43
9.12442e-89
-6.7434e-84
-6.45192e-81
-3.0087e-78
-5.54203e-75
-5.52323e-73
-8.42494e-71
-8.45626e-69
-6.64759e-67
-1.80214e-65
1.0006e-63
1.57103e-61
2.14234e-59
2.85312e-57
3.71512e-55
5.17647e-53
3.15221e-49
3.36898e-46
3.14548e-44
1.95901e-43
5.44692e-44
3.30408e-44
1.01318e-44
-1.93012e-90
-2.55004e-87
-1.64689e-84
-7.03604e-82
6.29969e-84
2.78498e-81
1.0411e-78
3.39951e-76
9.83269e-74
2.63583e-71
8.6359e-69
2.85425e-66
6.4183e-64
1.38663e-61
2.98841e-59
6.40841e-57
1.00659e-53
3.63389e-49
8.92449e-47
8.58659e-46
5.13108e-46
4.14314e-46
1.83678e-46
4.12012e-109
3.50419e-105
1.23155e-101
2.81153e-98
-7.267e-95
-1.72882e-90
-2.55384e-87
-7.13519e-82
-2.44909e-79
-9.81702e-77
-1.63194e-75
3.70391e-74
3.99344e-71
2.93069e-68
1.90939e-65
1.19305e-62
7.93236e-59
3.57084e-53
6.34844e-50
2.33179e-48
4.82654e-48
7.69711e-48
4.30362e-48
5.55847e-125
0
0
-1.34567e-106
-4.39453e-102
-1.97727e-98
-7.32696e-93
-7.65231e-90
-9.37313e-87
-5.26751e-84
-6.46662e-83
-2.66513e-83
-5.6894e-87
-4.84211e-84
-5.02128e-81
-3.84023e-78
-1.3163e-75
1.5945e-60
1.34672e-54
1.51341e-51
4.05999e-50
1.35919e-48
1.82658e-48
0.000362313
1.64271e-05
1.66197e-07
2.8476e-07
0.000351101
0.000116853
1.66177e-07
3.0053e-07
6.82683e-05
8.09779e-05
2.28384e-05
8.24407e-07
1.50097e-06
8.7976e-06
6.37443e-06
1.99937e-06
1.63806e-07
1.08377e-07
5.57152e-08
1.73229e-07
1.63453e-08
1.07119e-08
5.28047e-09
2.20331e-09
1.62512e-09
1.07402e-09
5.76002e-10
2.97602e-10
2.55285e-10
1.99042e-10
1.55702e-10
1.28886e-10
9.19874e-11
8.36826e-11
7.03368e-11
4.53402e-11
3.62119e-11
2.5332e-11
1.67361e-11
8.47623e-12
8.01821e-12
4.78438e-12
2.71433e-12
1.25942e-12
1.34149e-12
7.80041e-13
4.17349e-13
1.80044e-13
2.12751e-13
1.21595e-13
6.12729e-14
2.46522e-14
3.26999e-14
1.82074e-14
8.57869e-15
3.22706e-15
4.90026e-15
2.61699e-15
1.13816e-15
4.01848e-16
7.43173e-16
3.59024e-16
1.41181e-16
4.72953e-17
1.12984e-16
4.57828e-17
1.61647e-17
5.23201e-18
1.55888e-17
5.22198e-18
1.69527e-18
5.33964e-19
1.75813e-18
5.23147e-19
1.61853e-19
4.99235e-20
1.57761e-19
4.61998e-20
1.3966e-20
4.27073e-21
1.16529e-20
3.61642e-21
1.08235e-21
3.35478e-22
7.58472e-22
2.48831e-22
7.45839e-23
2.42488e-23
4.75041e-23
1.5868e-23
4.79082e-24
1.65131e-24
3.00114e-24
1.00971e-24
3.07669e-25
1.11015e-25
1.89313e-25
6.44534e-26
1.98606e-26
7.38674e-27
1.16531e-26
4.01592e-27
1.2543e-27
4.71955e-28
6.95355e-28
2.39516e-28
7.60971e-29
2.85616e-29
3.9655e-29
1.37075e-29
4.37412e-30
1.64175e-30
2.10444e-30
7.35189e-31
2.36585e-31
8.95306e-32
1.02529e-31
3.63831e-32
1.19606e-32
4.59247e-33
4.57068e-33
1.65713e-33
5.62502e-34
2.19887e-34
1.86424e-34
6.96795e-35
2.4497e-35
9.82224e-36
6.92688e-36
2.70662e-36
9.87288e-37
4.0957e-37
2.35932e-37
9.68359e-38
3.70143e-38
1.58893e-38
7.30533e-39
3.17902e-39
1.28912e-39
5.78251e-40
2.07445e-40
9.65426e-41
4.19703e-41
2.00354e-41
5.4431e-42
2.73264e-42
1.28392e-42
6.61613e-43
1.32823e-43
7.18637e-44
3.80347e-44
2.31363e-44
3.09554e-45
1.89115e-45
1.08852e-45
8.0843e-46
8.01567e-47
5.75734e-47
3.41681e-47
2.58375e-47
2.14733e-48
1.56867e-48
1.01255e-48
7.33101e-49
1.24023e-48
7.76651e-49
4.8127e-49
2.58986e-49
7.15946e-08
3.8556e-09
4.98661e-11
2.22242e-11
3.61111e-12
2.98361e-13
1.56382e-14
6.86521e-16
2.8086e-17
1.0514e-18
3.50276e-20
1.01721e-21
2.51541e-23
5.14216e-25
8.30473e-27
9.80296e-29
7.18489e-31
2.04471e-33
3.04786e-34
1.10954e-07
3.40348e-09
1.75881e-10
1.38722e-11
3.80257e-12
4.76749e-13
2.33592e-14
9.82412e-16
4.09967e-17
1.56272e-18
5.2925e-20
1.57108e-21
4.01884e-23
8.62278e-25
1.49557e-26
1.97732e-28
1.80244e-30
9.29802e-33
1.25575e-33
8.34073e-08
6.0798e-09
3.43357e-10
2.28398e-11
3.00761e-12
3.55375e-13
1.75723e-14
7.64651e-16
3.28056e-17
1.27972e-18
4.44991e-20
1.36016e-21
3.59211e-23
8.01802e-25
1.46634e-26
2.11349e-28
2.26153e-30
1.5719e-32
6.13359e-34
2.00598e-08
1.4674e-09
1.01019e-10
1.1839e-11
2.37512e-12
1.58159e-13
7.12989e-15
3.35416e-16
1.46851e-17
5.82273e-19
2.06912e-20
6.48986e-22
1.76548e-23
4.0848e-25
7.82974e-27
1.18927e-28
1.32816e-30
9.51786e-33
1.71167e-34
2.83144e-08
2.43975e-10
2.53055e-11
7.0797e-12
6.7422e-13
3.57416e-14
1.86304e-15
9.10403e-17
4.06212e-18
1.63623e-19
5.88529e-21
1.86561e-22
5.12978e-24
1.19946e-25
2.32227e-27
3.57193e-29
4.07773e-31
3.01879e-33
4.13139e-35
2.19315e-09
2.10411e-10
2.30781e-11
2.06415e-12
1.34053e-13
8.11835e-15
4.46256e-16
2.22199e-17
1.00161e-18
4.06161e-20
1.46774e-21
4.67062e-23
1.28909e-24
3.02464e-26
5.86955e-28
9.05026e-30
1.04004e-31
7.85253e-34
9.11185e-36
1.85658e-10
6.06371e-11
6.71132e-12
4.23971e-13
2.80397e-14
1.75746e-15
9.90286e-17
5.02066e-18
2.29238e-19
9.38268e-21
3.41512e-22
1.09342e-23
3.03529e-25
7.16516e-27
1.39999e-28
2.17624e-30
2.5262e-32
1.9388e-34
1.81795e-36
6.21383e-11
1.01948e-11
9.63589e-13
7.47331e-14
5.30415e-15
3.40692e-16
1.95984e-17
1.01174e-18
4.68536e-20
1.93849e-21
7.11509e-23
2.29377e-24
6.40683e-26
1.52178e-27
2.99397e-29
4.69212e-31
5.50065e-33
4.28009e-35
3.29138e-37
1.36764e-11
1.52024e-12
1.40706e-13
1.18806e-14
8.92035e-16
5.90141e-17
3.46736e-18
1.82055e-19
8.54285e-21
3.57021e-22
1.32062e-23
4.28392e-25
1.20298e-26
2.87205e-28
5.68157e-30
8.9612e-32
1.05879e-33
8.32899e-36
5.43009e-38
2.22524e-12
2.32445e-13
2.08468e-14
1.79008e-15
1.38086e-16
9.34037e-18
5.5855e-19
2.97365e-20
1.41036e-21
5.94216e-23
2.2116e-24
7.20898e-26
2.03268e-27
4.87177e-29
9.67756e-31
1.53389e-32
1.82354e-34
1.44705e-36
8.20246e-39
3.22728e-13
3.30646e-14
2.9609e-15
2.56235e-16
2.00076e-17
1.37169e-18
8.3034e-20
4.46417e-21
2.13318e-22
9.03761e-24
3.3775e-25
1.10438e-26
3.1221e-28
7.50189e-30
1.49455e-31
2.37759e-33
2.84034e-35
2.26985e-37
1.13954e-39
4.38153e-14
4.39795e-15
3.97568e-16
3.47077e-17
2.72711e-18
1.88282e-19
1.14761e-20
6.20426e-22
2.97673e-23
1.26468e-24
4.73517e-26
1.55031e-27
4.38753e-29
1.05556e-30
2.1066e-32
3.35999e-34
4.02918e-36
3.23839e-38
1.46118e-40
5.66968e-15
5.55264e-16
5.06834e-17
4.45414e-18
3.50525e-19
2.42422e-20
1.48062e-21
8.01657e-23
3.84919e-24
1.6356e-25
6.12232e-27
2.00364e-28
5.66881e-30
1.36395e-31
2.72415e-33
4.35243e-35
5.23465e-37
4.22711e-39
1.74226e-41
6.99134e-16
6.69289e-17
6.16245e-18
5.42431e-19
4.25282e-20
2.93212e-21
1.78678e-22
9.65376e-24
4.62528e-25
1.96109e-26
7.32539e-28
2.39295e-29
6.76073e-31
1.6254e-32
3.2465e-34
5.19269e-36
6.25991e-38
5.07477e-40
2.02314e-42
8.15803e-17
7.69869e-18
7.14905e-19
6.26347e-20
4.86656e-21
3.33076e-22
2.01783e-23
1.08468e-24
5.17349e-26
2.18478e-27
8.13267e-29
2.64906e-30
7.46816e-32
1.79309e-33
3.58015e-35
5.73067e-37
6.92245e-39
5.63114e-41
2.26379e-43
8.90064e-18
8.42461e-19
7.88787e-20
6.83423e-21
5.23923e-22
3.54813e-23
2.13122e-24
1.13739e-25
5.39175e-27
2.26519e-28
8.39591e-30
2.72551e-31
7.66462e-33
1.83749e-34
3.66715e-36
5.87404e-38
7.10958e-40
5.80255e-42
2.36113e-44
9.01149e-19
8.73373e-20
8.22198e-21
7.00816e-22
5.28748e-23
3.53626e-24
2.10272e-25
1.11284e-26
5.23909e-28
2.18869e-29
8.07597e-31
2.6127e-32
7.33003e-34
1.75498e-35
3.50171e-37
5.61426e-39
6.80974e-41
5.577e-43
2.28161e-45
8.79754e-20
8.63602e-21
8.04515e-22
6.71174e-23
4.97733e-24
3.28778e-25
1.93547e-26
1.01569e-27
4.74948e-29
1.97359e-30
7.25264e-32
2.33952e-33
6.5517e-35
1.56745e-36
3.12851e-38
5.02293e-40
6.10798e-42
5.02107e-44
2.05981e-46
8.37116e-21
8.21245e-22
7.44212e-23
6.03414e-24
4.38104e-25
2.85046e-26
1.65891e-27
8.64264e-29
4.02026e-30
1.66366e-31
6.09479e-33
1.96223e-34
5.49033e-36
1.31367e-37
2.62484e-39
4.22306e-41
5.1513e-43
4.25241e-45
1.74921e-47
7.72735e-22
7.48343e-23
6.59707e-24
5.20805e-25
3.67846e-26
2.33557e-27
1.33618e-28
6.89004e-30
3.18389e-31
1.31249e-32
4.80309e-34
1.54605e-35
4.32813e-37
1.03686e-38
2.07604e-40
3.34984e-42
4.10173e-44
3.40201e-46
1.40335e-48
6.83686e-23
6.5258e-24
5.63763e-25
4.35096e-26
2.99357e-27
1.85789e-28
1.04257e-29
5.25894e-31
2.39568e-32
9.79626e-34
3.57233e-35
1.14884e-36
3.21906e-38
7.73171e-40
1.55357e-41
2.51672e-43
3.09605e-45
2.58163e-47
1.06768e-49
5.72701e-24
5.41625e-25
4.6239e-26
3.51369e-27
2.37543e-28
1.44925e-29
7.98345e-31
3.94283e-32
1.76896e-33
7.13675e-35
2.56284e-36
8.18403e-38
2.28697e-39
5.49634e-41
1.10659e-42
1.79979e-44
2.22476e-46
1.86559e-48
7.73046e-51
4.50337e-25
4.25101e-26
3.61651e-27
2.72801e-28
1.827e-29
1.10276e-30
5.99895e-32
2.92395e-33
1.29533e-34
5.15341e-36
1.8237e-37
5.77096e-39
1.60116e-40
3.82075e-42
7.64686e-44
1.24529e-45
1.54358e-47
1.30027e-49
5.39745e-52
3.30637e-26
3.14696e-27
2.68985e-28
2.02884e-29
1.35442e-30
8.1348e-32
4.39691e-33
2.12774e-34
9.35167e-36
3.68802e-37
1.29429e-38
4.06414e-40
1.119e-41
2.65083e-43
5.27563e-45
8.58291e-47
1.06455e-48
8.99116e-51
3.73551e-53
2.25977e-27
2.19747e-28
1.90211e-29
1.44432e-30
9.66702e-32
5.80675e-33
3.13274e-34
1.51103e-35
6.6166e-37
2.59835e-38
9.0809e-40
2.83931e-41
7.78526e-43
1.83807e-44
3.65022e-46
5.93117e-48
7.35796e-50
6.22835e-52
2.58827e-54
1.44095e-28
1.44729e-29
1.27964e-30
9.84632e-32
6.64521e-33
4.01124e-34
2.16889e-35
1.04651e-36
4.58037e-38
1.79637e-39
6.2675e-41
1.9568e-42
5.35857e-44
1.26406e-45
2.50993e-47
4.07957e-49
5.06756e-51
4.30295e-53
1.7879e-55
8.64198e-30
8.97898e-31
8.19939e-32
6.43304e-33
4.40166e-34
2.68243e-35
1.45955e-36
7.07057e-38
3.1025e-39
1.21836e-40
4.25344e-42
1.32866e-43
3.63993e-45
8.59065e-47
1.70725e-48
2.77904e-50
3.45931e-52
2.94802e-54
1.22402e-56
4.98913e-31
5.26008e-32
5.01195e-33
4.03284e-34
2.81169e-35
1.7375e-36
9.55063e-38
4.66123e-39
2.05656e-40
8.10799e-42
2.83881e-43
8.88835e-45
2.43963e-46
5.76762e-48
1.14824e-49
1.87303e-51
2.33714e-53
1.99902e-55
8.28817e-58
2.78595e-32
2.94082e-33
2.92433e-34
2.42987e-35
1.73418e-36
1.0911e-37
6.08092e-39
2.99965e-40
1.33451e-41
5.29516e-43
1.86337e-44
5.85828e-46
1.6134e-47
3.8254e-49
7.63602e-51
1.24885e-52
1.56241e-54
1.3412e-56
5.54924e-59
1.47807e-33
1.58612e-34
1.6337e-35
1.40997e-36
1.0344e-37
6.65118e-39
3.77101e-40
1.88579e-41
8.48187e-43
3.39504e-44
1.20318e-45
3.80469e-47
1.05284e-48
2.50637e-50
5.02048e-52
8.2365e-54
1.0334e-55
8.90209e-58
3.6733e-60
7.36304e-35
8.25681e-36
8.78297e-37
7.89747e-38
5.97803e-39
3.94175e-40
2.2806e-41
1.15936e-42
5.2847e-44
2.13845e-45
7.64635e-47
2.43574e-48
6.78118e-50
1.62244e-51
3.26359e-53
5.37331e-55
6.76213e-57
5.84489e-59
2.40382e-61
3.43487e-36
4.09884e-37
4.56205e-38
4.28056e-39
3.3544e-40
2.27514e-41
1.34708e-42
6.97905e-44
3.23129e-45
1.32445e-46
4.78623e-48
1.53806e-49
4.31302e-51
1.03805e-52
2.09824e-54
3.4683e-56
4.37858e-58
3.79677e-60
1.55543e-62
1.5012e-37
1.92925e-38
2.29448e-39
2.25097e-40
1.83161e-41
1.28146e-42
7.78471e-44
4.11986e-45
1.94146e-46
8.07506e-48
2.95376e-49
9.58771e-51
2.71085e-52
6.56845e-54
1.33491e-55
2.216e-57
2.80672e-59
2.44103e-61
9.95583e-64
6.16971e-39
8.77243e-40
1.11959e-40
1.15138e-41
9.75504e-43
7.05847e-44
4.40988e-45
2.38903e-46
1.148e-47
4.85311e-49
1.79935e-50
5.9062e-52
1.6853e-53
4.11396e-55
8.41022e-57
1.40248e-58
1.78221e-60
1.55423e-62
6.30754e-65
2.42836e-40
3.9038e-41
5.31381e-42
5.743e-43
5.07999e-44
3.81077e-45
2.45392e-46
1.36347e-47
6.69218e-49
2.87961e-50
1.08348e-51
3.59996e-53
1.0375e-54
2.55299e-56
5.25202e-58
8.79978e-60
1.12193e-61
9.80808e-64
3.95879e-66
9.59122e-42
1.69561e-42
2.45668e-43
2.80047e-44
2.59322e-45
2.0215e-46
1.34443e-47
7.67486e-49
3.85339e-50
1.68984e-51
6.45913e-53
2.17421e-54
6.33289e-56
1.57163e-57
3.25455e-59
5.47962e-61
7.00914e-63
6.1406e-65
2.46394e-67
3.72576e-43
7.16082e-44
1.10832e-44
1.33858e-45
1.30117e-46
1.05642e-47
7.27007e-49
4.27065e-50
2.19624e-51
9.82618e-53
3.81888e-54
1.30321e-55
3.83841e-57
9.61053e-59
2.00377e-60
3.39044e-62
4.35067e-64
3.8185e-66
1.5226e-68
1.38676e-44
2.93763e-45
4.89474e-46
6.28972e-47
6.43628e-48
5.4544e-49
3.89068e-50
2.35502e-51
1.24185e-52
5.67357e-54
2.24352e-55
7.76584e-57
2.31384e-58
5.84644e-60
1.22747e-61
2.08723e-63
2.68665e-65
2.36152e-67
9.35413e-70
4.9428e-46
1.17526e-46
2.12345e-47
2.91496e-48
3.14888e-49
2.79092e-50
2.06659e-51
1.29041e-52
6.98339e-54
3.26007e-55
1.31231e-56
4.60933e-58
1.38963e-59
3.54388e-61
7.49263e-63
1.28034e-64
1.65288e-66
1.45451e-68
5.72485e-71
1.6978e-47
4.59534e-48
9.07767e-49
1.33803e-49
1.52963e-50
1.42028e-51
1.09295e-52
7.04566e-54
3.91537e-55
1.86849e-56
7.65891e-58
2.73015e-59
8.3292e-61
2.14396e-62
4.56443e-64
7.83716e-66
1.01455e-67
8.93486e-70
3.39301e-72
5.47177e-49
1.7061e-49
3.71087e-50
5.89726e-51
7.27083e-52
7.15444e-53
5.76795e-54
3.85921e-55
2.20923e-56
1.07823e-57
4.50178e-59
1.62895e-60
5.02949e-62
1.30671e-63
2.80119e-65
4.83226e-67
6.27176e-69
5.52583e-71
1.31404e-73
7.45884e-50
1.50751e-50
2.31608e-51
2.8246e-52
2.86263e-53
2.44255e-54
1.78454e-55
1.12721e-56
6.30469e-58
3.15164e-59
1.3419e-60
4.93363e-62
1.54285e-63
4.04856e-65
8.74357e-67
1.51607e-68
1.97353e-70
1.74026e-72
1.24154e-73
)
;

boundaryField
{
    leftWall
    {
        type            zeroGradient;
    }
    rightWall
    {
        type            zeroGradient;
    }
    lowerWall
    {
        type            zeroGradient;
    }
    atmosphere
    {
        type            inletOutlet;
        inletValue      uniform 0;
        value           nonuniform List<scalar> 
46
(
0
0
0
0
0
0
0
0
0
0
0
0
0
0
0
0
0
0
0
0
4.05999e-50
1.35919e-48
1.82658e-48
1.24023e-48
7.76651e-49
4.8127e-49
2.58986e-49
7.45884e-50
1.50751e-50
2.31608e-51
2.8246e-52
2.86263e-53
2.44255e-54
1.78454e-55
1.12721e-56
6.30469e-58
3.15164e-59
1.3419e-60
4.93363e-62
1.54285e-63
4.04856e-65
8.74357e-67
1.51607e-68
1.97353e-70
1.74026e-72
1.24154e-73
)
;
    }
    defaultFaces
    {
        type            empty;
    }
}


// ************************************************************************* //
