/*--------------------------------*- C++ -*----------------------------------*\
| =========                 |                                                 |
| \\      /  F ield         | OpenFOAM: The Open Source CFD Toolbox           |
|  \\    /   O peration     | Version:  2206                                  |
|   \\  /    A nd           | Website:  www.openfoam.com                      |
|    \\/     M anipulation  |                                                 |
\*---------------------------------------------------------------------------*/
FoamFile
{
    version     2.0;
    format      ascii;
    arch        "LSB;label=32;scalar=64";
    class       surfaceScalarField;
    location    "0.35";
    object      alphaPhi0.water;
}
// * * * * * * * * * * * * * * * * * * * * * * * * * * * * * * * * * * * * * //

dimensions      [0 3 -1 0 0 0 0];

oriented        oriented;

internalField   nonuniform List<scalar> 
4432
(
-2.66999e-06
2.66999e-06
4.58595e-07
-3.12859e-06
4.95589e-06
-4.4973e-06
8.61313e-06
-3.65725e-06
1.09956e-05
-2.38244e-06
1.24448e-05
-1.44927e-06
1.33879e-05
-9.43075e-07
1.40718e-05
-6.83839e-07
1.45606e-05
-4.88792e-07
1.4815e-05
-2.5447e-07
1.47902e-05
2.48611e-08
1.43933e-05
3.9693e-07
1.35812e-05
8.12087e-07
1.23305e-05
1.2507e-06
1.06387e-05
1.69175e-06
8.53472e-06
2.104e-06
6.11786e-06
2.41685e-06
3.52193e-06
2.59592e-06
1.07349e-06
2.44844e-06
-5.5856e-07
1.63205e-06
-5.77603e-07
1.904e-08
1.97672e-06
-2.62725e-06
1.72221e-06
-2.48558e-06
5.15557e-06
5.15606e-07
-6.12977e-06
4.9761e-06
-8.95779e-06
8.70272e-06
-7.38387e-06
1.12365e-05
-4.91625e-06
1.28955e-05
-3.1083e-06
1.40836e-05
-2.1311e-06
1.50327e-05
-1.63304e-06
1.58124e-05
-1.26848e-06
1.64127e-05
-8.54748e-07
1.67743e-05
-3.36703e-07
1.69078e-05
2.63383e-07
1.68361e-05
8.83773e-07
1.65437e-05
1.54312e-06
1.60158e-05
2.21967e-06
1.52305e-05
2.88928e-06
1.4151e-05
3.4964e-06
1.28071e-05
3.93977e-06
1.11823e-05
4.0733e-06
9.15359e-06
3.66026e-06
6.69318e-06
2.47872e-06
3.35597e-06
7.09857e-07
5.23304e-06
-1.91539e-06
7.07095e-06
7.70312e-07
-8.81547e-06
5.12175e-06
-1.33092e-05
8.97708e-06
-1.12392e-05
1.17895e-05
-7.72871e-06
1.37981e-05
-5.11683e-06
1.53426e-05
-3.67558e-06
1.66126e-05
-2.9031e-06
1.76541e-05
-2.30997e-06
1.84445e-05
-1.64514e-06
1.89524e-05
-8.44579e-07
1.91283e-05
8.74886e-08
1.89994e-05
1.01259e-06
1.85698e-05
1.97279e-06
1.7863e-05
2.92645e-06
1.69055e-05
3.84675e-06
1.57147e-05
4.68722e-06
1.42827e-05
5.37174e-06
1.24741e-05
5.88189e-06
9.87604e-06
6.25832e-06
6.0749e-06
6.27913e-06
1.70009e-06
5.08455e-06
7.0607e-06
-8.81272e-07
7.95222e-06
1.55467e-06
-1.12514e-05
5.77609e-06
-1.75306e-05
9.78396e-06
-1.52471e-05
1.29619e-05
-1.09067e-05
1.54458e-05
-7.60068e-06
1.74899e-05
-5.71968e-06
1.92337e-05
-4.6469e-06
2.07012e-05
-3.77744e-06
2.18575e-05
-2.80146e-06
2.26515e-05
-1.63862e-06
2.30464e-05
-3.07369e-07
2.29989e-05
1.06014e-06
2.25177e-05
2.45392e-06
2.15874e-05
3.85681e-06
2.02071e-05
5.22696e-06
1.83837e-05
6.51064e-06
1.6135e-05
7.62043e-06
1.34765e-05
8.54043e-06
1.02851e-05
9.44962e-06
6.38081e-06
1.01835e-05
2.40133e-06
9.06392e-06
9.5092e-06
5.64542e-07
7.38768e-06
3.13923e-06
-1.38261e-05
7.34111e-06
-2.17325e-05
1.15034e-05
-1.94093e-05
1.50368e-05
-1.44401e-05
1.80206e-05
-1.05845e-05
2.06197e-05
-8.31879e-06
2.29033e-05
-6.93046e-06
2.48621e-05
-5.7363e-06
2.64554e-05
-4.39476e-06
2.76346e-05
-2.81778e-06
2.83446e-05
-1.01737e-06
2.85006e-05
9.0412e-07
2.81517e-05
2.80279e-06
2.72636e-05
4.74499e-06
2.58077e-05
6.68284e-06
2.37514e-05
8.5669e-06
2.10551e-05
1.03168e-05
1.77132e-05
1.18823e-05
1.37751e-05
1.33877e-05
9.25188e-06
1.47067e-05
4.57187e-06
1.3744e-05
1.40811e-05
2.52565e-06
4.86203e-06
5.79143e-06
-1.70919e-05
1.01096e-05
-2.60506e-05
1.43967e-05
-2.36964e-05
1.82439e-05
-1.82873e-05
2.17451e-05
-1.40857e-05
2.49775e-05
-1.15512e-05
2.79056e-05
-9.85857e-06
3.04497e-05
-8.28042e-06
3.25319e-05
-6.47695e-06
3.40933e-05
-4.37918e-06
3.51158e-05
-2.03989e-06
3.55815e-05
4.38397e-07
3.54441e-05
2.94018e-06
3.46533e-05
5.53584e-06
3.31415e-05
8.19459e-06
3.08846e-05
1.08238e-05
2.78539e-05
1.33475e-05
2.40232e-05
1.5713e-05
1.9462e-05
1.79489e-05
1.40228e-05
2.01459e-05
7.25425e-06
2.05125e-05
2.13353e-05
6.78059e-06
-1.91855e-06
1.198e-05
-2.22903e-05
1.56635e-05
-2.97312e-05
1.90135e-05
-2.70441e-05
2.26723e-05
-2.19449e-05
2.6623e-05
-1.80357e-05
3.06038e-05
-1.55316e-05
3.43591e-05
-1.36137e-05
3.77267e-05
-1.1648e-05
4.06066e-05
-9.35677e-06
4.28919e-05
-6.66448e-06
4.44303e-05
-3.57831e-06
4.47608e-05
1.07886e-07
4.46784e-05
3.02259e-06
4.39678e-05
6.2465e-06
4.26245e-05
9.53782e-06
4.07604e-05
1.26879e-05
3.83553e-05
1.57527e-05
3.50808e-05
1.89875e-05
3.05898e-05
2.244e-05
2.42883e-05
2.64473e-05
1.52747e-05
2.95261e-05
3.661e-05
1.80942e-05
-1.84151e-05
2.64017e-05
-2.26993e-05
2.49091e-05
-1.88257e-05
2.44931e-05
-1.84338e-05
2.73286e-05
-1.78075e-05
3.21176e-05
-1.69799e-05
3.7398e-05
-1.6174e-05
4.23759e-05
-1.51848e-05
4.67183e-05
-1.37866e-05
5.02941e-05
-1.1822e-05
5.30507e-05
-9.20405e-06
5.53179e-05
-5.84559e-06
5.75335e-05
-2.10778e-06
5.82139e-05
2.34221e-06
5.75457e-05
6.91466e-06
5.56591e-05
1.14245e-05
5.30983e-05
1.52486e-05
5.04114e-05
1.84395e-05
4.74657e-05
2.19332e-05
4.37141e-05
2.61916e-05
3.74521e-05
3.27094e-05
2.6098e-05
4.08802e-05
6.2708e-05
4.92595e-22
-4.26228e-20
4.25267e-22
-3.56912e-21
1.30093e-23
-5.5069e-23
8.51012e-25
-1.25337e-23
3.98353e-26
-8.07591e-25
1.02638e-27
-2.26039e-26
1.48879e-29
-2.97427e-28
1.04553e-31
-1.45086e-30
2.85677e-34
1.7941e-34
5.39929e-36
5.71642e-36
8.39861e-38
1.61657e-37
1.18664e-39
3.53122e-39
1.45173e-41
6.44313e-41
1.47612e-43
9.89071e-43
1.18023e-45
1.2577e-44
6.80648e-48
1.27607e-46
3.26863e-50
9.68445e-49
9.75143e-51
4.8581e-51
2.98902e-53
5.32173e-20
-2.3984e-19
1.27854e-19
-2.94949e-19
3.59047e-21
-5.23071e-20
2.27411e-22
-2.4519e-21
1.10848e-23
-2.14485e-22
3.2445e-25
-6.62876e-24
5.3951e-27
-1.01557e-25
4.03418e-29
-5.64699e-28
1.17049e-31
2.62332e-31
2.88565e-33
9.00967e-33
3.79393e-35
2.67802e-34
5.59362e-37
6.13088e-36
7.18089e-39
1.17446e-37
7.67035e-41
1.89603e-39
6.44967e-43
2.53624e-41
3.91544e-45
2.70773e-43
1.46611e-47
2.16402e-45
3.98755e-50
1.14639e-47
3.01838e-50
7.40345e-18
-1.37573e-17
1.75337e-17
-1.97893e-17
5.89443e-19
-3.26008e-18
3.24551e-20
-2.40341e-19
1.57226e-21
-2.94171e-20
5.0115e-23
-9.09933e-22
9.45838e-25
-1.52817e-23
7.16477e-27
-8.61015e-26
2.90866e-29
1.05406e-28
6.71364e-31
3.41034e-30
9.93641e-33
1.0235e-31
1.5027e-34
2.39537e-33
1.96804e-36
4.6913e-35
2.13886e-38
7.72783e-37
1.82606e-40
1.05261e-38
1.12394e-42
1.14209e-40
5.75354e-45
9.26214e-43
1.59376e-47
4.99227e-45
1.33614e-47
7.04939e-16
-1.37823e-15
1.67172e-15
-2.09353e-15
4.5893e-17
1.64262e-15
3.0855e-18
-2.81314e-17
1.42762e-19
-2.5205e-18
4.67264e-21
-7.33387e-20
9.5604e-23
-1.23497e-21
6.43148e-25
-5.72517e-24
5.45272e-27
1.80311e-26
1.27351e-28
8.61994e-28
2.04601e-30
2.65118e-29
3.25202e-32
6.46518e-31
4.45781e-34
1.32271e-32
5.0572e-36
2.27498e-34
4.49879e-38
3.2306e-36
3.63869e-40
3.65086e-38
1.93748e-42
3.0935e-40
5.57469e-45
1.73603e-42
4.83837e-45
4.41129e-14
-7.24143e-14
1.10572e-13
-1.40789e-13
4.88528e-15
9.86057e-14
2.17421e-16
2.64793e-16
9.23856e-18
-1.40178e-16
2.83571e-19
-3.91813e-18
5.55347e-21
-5.68667e-20
3.51926e-23
-1.04947e-22
8.10528e-25
3.17578e-24
1.6962e-26
1.52813e-25
3.22852e-28
4.85855e-27
5.46869e-30
1.24935e-28
7.94176e-32
2.69925e-30
9.52091e-34
4.90284e-32
1.04261e-35
7.3448e-34
9.16035e-38
8.77536e-36
5.06671e-40
7.83935e-38
1.55172e-42
4.63119e-40
1.359e-42
8.13371e-13
-2.34436e-12
4.13039e-12
-7.30855e-12
2.19142e-13
3.53319e-12
1.15915e-14
1.2952e-14
4.71498e-16
-4.67074e-15
1.37846e-17
-1.49882e-16
2.41304e-19
-1.86263e-18
2.91596e-21
2.637e-21
8.54901e-23
4.125e-22
1.81772e-24
1.88419e-23
3.75283e-26
6.24239e-25
6.8174e-28
1.70228e-26
1.05662e-29
3.91127e-28
1.47501e-31
7.55058e-30
1.83121e-33
1.20404e-31
1.68465e-35
1.5296e-33
9.78864e-38
1.44923e-35
3.24081e-40
9.0758e-38
2.82673e-40
7.15503e-11
-1.42372e-10
7.49629e-11
-1.64784e-09
3.41674e-12
-1.76533e-10
1.88806e-13
-2.06089e-12
1.03944e-14
-2.06828e-13
3.77001e-16
-5.1158e-15
8.01382e-18
-3.8518e-17
2.0722e-19
4.30854e-19
5.9626e-21
3.73615e-20
1.47159e-22
1.68476e-21
3.29092e-24
5.86645e-23
6.43145e-26
1.70147e-24
1.09543e-27
4.17034e-26
1.81018e-29
8.59091e-28
2.39774e-31
1.46496e-29
2.27779e-33
1.98313e-31
1.42012e-35
1.99818e-33
5.09887e-38
1.33176e-35
4.41837e-38
4.15259e-08
-4.36761e-08
4.51254e-09
-2.0968e-08
-2.85594e-10
-3.14328e-09
-6.82988e-12
-3.08812e-10
-6.36452e-14
-8.4654e-12
2.68515e-15
-1.31903e-13
1.96e-16
2.70164e-17
1.03784e-17
3.46651e-17
3.21492e-19
2.3288e-18
8.67291e-21
1.05798e-19
2.10195e-22
3.88611e-21
4.42109e-24
1.2003e-22
9.03753e-26
3.13957e-24
1.59738e-27
6.93692e-26
2.16808e-29
1.26309e-27
2.19069e-31
1.82098e-29
1.46598e-33
1.95415e-31
5.77242e-36
1.39199e-33
4.91528e-36
8.40163e-06
1.99853e-21
5.09344e-06
5.06699e-21
4.23974e-06
7.97347e-21
4.21763e-06
9.78544e-20
4.98023e-06
6.51418e-19
6.55247e-06
2.28257e-18
8.74724e-06
4.02327e-18
1.15431e-05
6.93096e-18
1.51417e-05
5.50315e-18
1.96251e-05
1.77473e-18
2.51056e-05
-3.85063e-07
3.05465e-05
-2.29898e-06
3.53851e-05
-1.30424e-06
3.8112e-05
1.44434e-06
3.78524e-05
7.17425e-06
3.56415e-05
1.36354e-05
3.43431e-05
1.65471e-05
3.40423e-05
1.87403e-05
3.39781e-05
2.19974e-05
3.46554e-05
2.55142e-05
3.68798e-05
3.0485e-05
4.21701e-05
3.55899e-05
4.97119e-05
5.51662e-05
-2.186e-22
9.0121e-21
-6.00886e-22
2.58791e-20
-1.61115e-21
5.92136e-20
-2.65504e-20
6.58803e-19
-1.81909e-19
3.96788e-18
-6.3873e-19
1.39797e-17
-1.09587e-18
2.58578e-17
-1.71581e-18
3.34982e-17
-1.05237e-18
3.16488e-17
-2.45005e-19
1.92289e-17
8.58421e-09
1.39918e-17
1.03703e-06
5.69872e-18
3.6065e-06
1.06636e-19
8.6151e-06
-3.43006e-08
1.81075e-05
-1.49586e-07
3.07104e-05
1.28575e-06
3.7842e-05
7.38767e-06
4.10239e-05
1.55584e-05
4.16317e-05
2.13896e-05
4.38779e-05
2.3268e-05
4.88564e-05
2.55064e-05
5.79507e-05
2.64956e-05
3.27617e-05
7.49009e-05
8.43799e-21
8.21164e-21
2.88588e-20
2.83929e-20
1.687e-20
1.19096e-19
-1.17558e-19
1.1398e-18
-9.52172e-19
6.29165e-18
-4.19731e-18
2.22218e-17
-1.01693e-17
4.27412e-17
-1.84108e-17
5.71253e-17
-2.64774e-17
5.83767e-17
-2.5027e-17
3.86791e-17
-1.11407e-17
1.80098e-17
-2.41142e-18
5.43755e-18
-2.56418e-20
-3.01358e-20
-3.43447e-08
4.4133e-11
-1.92726e-07
3.36122e-09
5.47175e-07
-3.14701e-09
6.26382e-06
-5.66166e-08
1.91236e-05
-2.2604e-07
3.53786e-05
2.52392e-06
4.64706e-05
1.03431e-05
5.49992e-05
1.69778e-05
6.33684e-05
1.81264e-05
1.84185e-05
7.77116e-05
9.05582e-21
2.52136e-21
2.01213e-20
1.43095e-20
-2.75371e-21
1.18322e-19
-1.45678e-19
1.09977e-18
-1.21766e-18
6.19405e-18
-5.81251e-18
2.19171e-17
-1.47312e-17
4.30075e-17
-2.58034e-17
5.96379e-17
-3.45612e-17
6.35678e-17
-2.83864e-17
4.35612e-17
-1.24652e-17
1.64896e-17
-3.96286e-18
4.1992e-18
2.01017e-18
-6.00317e-18
4.2911e-11
1.22204e-12
3.18572e-09
1.1174e-10
3.10722e-11
-3.49512e-11
-5.73596e-08
3.06966e-10
-3.73468e-07
5.76699e-09
8.1528e-07
-4.85001e-08
9.79314e-06
-2.82225e-07
2.63955e-05
1.21213e-07
4.76704e-05
1.05896e-06
2.13104e-06
6.92616e-05
1.83343e-21
5.34304e-22
6.50169e-21
4.80676e-21
-6.01259e-21
7.99938e-20
-1.59733e-19
7.79915e-19
-1.47288e-18
4.52115e-18
-7.27764e-18
1.59405e-17
-1.87169e-17
3.14953e-17
-3.30748e-17
4.44289e-17
-4.44401e-17
4.84752e-17
-3.75609e-17
3.39349e-17
-1.71507e-17
8.3836e-18
-6.0075e-18
-1.26514e-18
3.19332e-16
-1.23715e-19
1.2139e-12
-1.96e-16
1.09782e-10
1.43299e-12
5.84592e-11
2.00335e-13
3.10198e-10
3.73695e-11
3.78429e-09
1.82579e-09
-4.56217e-08
-1.38941e-11
-3.22948e-07
1.19132e-09
-7.84328e-07
-1.66951e-09
1.03806e-06
-1.44396e-08
-3.44069e-07
7.43671e-06
2.80875e-22
1.17016e-22
8.95538e-22
2.15654e-21
-5.84861e-21
4.10816e-20
-1.3262e-19
4.3183e-19
-1.24569e-18
2.56719e-18
-6.12396e-18
9.02668e-18
-1.5751e-17
1.78828e-17
-2.8192e-17
2.53597e-17
-3.88077e-17
2.76977e-17
-3.46477e-17
1.92404e-17
-1.13535e-17
8.83166e-19
2.62429e-18
-1.82835e-17
5.62939e-18
-2.0873e-18
4.17e-14
-1.87671e-15
1.60268e-12
-9.25932e-14
1.95269e-12
-6.2495e-15
3.81989e-11
8.2743e-13
1.75809e-09
8.80425e-11
5.19381e-10
2.85252e-11
1.67739e-09
7.34122e-11
1.00565e-11
-1.83033e-11
-1.43818e-08
-4.91958e-11
1.72364e-10
-3.5777e-07
4.7799e-23
4.17037e-23
-4.82316e-23
8.72143e-22
-4.09513e-21
1.69966e-20
-8.44354e-20
1.88157e-19
-7.81231e-19
1.13503e-18
-3.75818e-18
3.96752e-18
-9.56204e-18
7.85901e-18
-1.70441e-17
1.11078e-17
-2.33854e-17
1.19054e-17
-2.07416e-17
8.09108e-18
-1.26986e-18
-1.75798e-18
4.68904e-17
-3.31418e-17
1.1945e-16
-7.25649e-17
2.92519e-14
-8.04608e-17
9.42519e-14
-2.63135e-15
1.57631e-13
-4.3227e-16
1.04622e-12
3.4584e-15
8.66672e-11
2.13145e-12
6.11369e-11
-8.16822e-13
1.32552e-10
2.07041e-12
6.0067e-11
7.95394e-13
1.11531e-11
-3.81537e-13
9.2136e-12
1.93049e-10
-1.69029e-25
1.83503e-23
-4.29694e-23
2.8201e-22
-2.05729e-21
5.61254e-21
-4.10981e-20
6.41031e-20
-3.74922e-19
3.88557e-19
-1.7632e-18
1.34291e-18
-4.42867e-18
2.64663e-18
-7.78325e-18
3.6856e-18
-1.03805e-17
3.75575e-18
-8.90157e-18
2.277e-18
1.22976e-17
-1.30445e-18
1.08048e-16
-3.44518e-17
2.29687e-16
-9.5682e-17
3.6612e-16
-1.21211e-16
1.78913e-14
-2.18251e-16
9.43095e-14
-6.7458e-16
1.66318e-13
-2.32184e-15
2.37219e-12
-8.20074e-15
1.61679e-12
-9.31298e-15
3.78666e-12
-1.19099e-14
2.21267e-12
-2.15088e-14
1.35038e-12
-1.09502e-14
-2.16847e-14
1.05945e-11
-9.38784e-25
6.2132e-24
-1.96304e-23
7.14098e-23
-7.70796e-22
1.42457e-21
-1.50522e-20
1.6575e-20
-1.35227e-19
1.00335e-19
-6.21162e-19
3.41175e-19
-1.53577e-18
6.64122e-19
-2.6304e-18
8.90659e-19
-3.29471e-18
7.92934e-19
-2.47837e-18
2.06734e-19
5.87187e-18
-1.5181e-18
8.2431e-17
-1.60278e-17
2.93516e-16
-6.44153e-17
5.56242e-16
-1.31052e-16
1.08248e-15
-1.98383e-16
6.16845e-15
-4.01561e-16
4.33859e-14
-1.12821e-15
1.03477e-13
-4.61075e-15
1.30495e-13
-9.74764e-15
1.50784e-13
-1.66579e-14
1.56666e-13
-2.3064e-14
1.12044e-13
-1.73514e-14
-1.27335e-14
1.09986e-13
-5.01513e-25
1.51131e-24
-6.00764e-24
1.32112e-23
-2.1247e-22
2.61192e-22
-4.06881e-21
3.07138e-21
-3.59424e-20
1.84773e-20
-1.60881e-19
6.1477e-20
-3.89201e-19
1.16565e-19
-6.35097e-19
1.41676e-19
-6.85897e-19
7.29115e-20
-2.18026e-19
-1.58067e-19
3.82353e-18
-1.42923e-18
3.08289e-17
-7.18952e-18
1.42496e-16
-2.68484e-17
3.76021e-16
-6.83041e-17
8.25773e-16
-1.40583e-16
2.18619e-15
-2.93774e-16
7.82637e-15
-6.7955e-16
3.15023e-14
-1.85651e-15
1.02609e-13
-5.70078e-15
1.44802e-13
-1.56114e-14
1.66542e-13
-1.9354e-14
1.29302e-13
-2.28922e-14
-1.26878e-14
1.35018e-13
-1.51916e-25
2.35464e-25
-1.24927e-24
1.58298e-24
-4.10227e-23
3.08229e-23
-7.71577e-22
3.64544e-22
-6.69012e-21
2.16918e-21
-2.90772e-20
6.99943e-21
-6.79775e-20
1.23128e-20
-9.95535e-20
9.95843e-21
-6.13876e-20
-1.19271e-20
3.39591e-19
-1.70409e-19
2.5209e-18
-1.06365e-18
1.32382e-17
-4.53386e-18
5.58286e-17
-1.62657e-17
1.70783e-16
-4.6275e-17
4.48807e-16
-1.11629e-16
1.18783e-15
-2.47578e-16
3.24598e-15
-4.80492e-16
1.00418e-14
-8.78126e-16
3.46601e-14
-1.96103e-15
9.79052e-14
-5.82389e-15
1.3407e-13
-1.53961e-14
1.14426e-13
-1.71386e-14
-1.39114e-14
1.28638e-13
-2.72598e-26
1.7863e-26
-1.62099e-25
9.2831e-26
-4.99346e-24
1.76737e-24
-9.22382e-23
2.08734e-23
-7.82384e-22
1.21446e-22
-3.27605e-21
3.62208e-22
-7.05862e-21
3.23845e-22
-6.82178e-21
-1.33702e-21
2.4236e-20
-1.90116e-20
2.87161e-19
-1.52465e-19
1.72342e-18
-8.53809e-19
8.35582e-18
-3.67935e-18
3.41075e-17
-1.3249e-17
1.13121e-16
-4.00528e-17
3.21385e-16
-1.02986e-16
8.15367e-16
-2.34998e-16
1.77718e-15
-4.65993e-16
3.68964e-15
-8.289e-16
9.00887e-15
-1.49989e-15
2.72907e-14
-3.37212e-15
6.40234e-14
-9.56009e-15
7.15135e-14
-1.62896e-14
-1.57803e-14
8.92466e-14
-2.2861e-27
6.6688e-29
-1.00745e-26
1.84353e-28
-2.91339e-25
8.12949e-28
-5.26163e-24
-2.32616e-26
-4.31778e-23
-5.66314e-25
-1.66046e-22
-9.60043e-24
-1.80796e-22
-1.3283e-22
1.83328e-21
-1.59412e-21
2.68159e-20
-1.63889e-20
2.09833e-19
-1.26113e-19
1.35487e-18
-7.51022e-19
6.61986e-18
-3.33191e-18
2.69044e-17
-1.21406e-17
9.25554e-17
-3.84461e-17
2.69081e-16
-1.03123e-16
6.7674e-16
-2.34101e-16
1.4742e-15
-4.65231e-16
2.93828e-15
-8.59078e-16
6.068e-15
-1.56829e-15
1.51207e-14
-3.17035e-15
4.26793e-14
-8.88464e-15
6.28435e-14
-1.7875e-14
-1.89135e-14
8.30824e-14
-9.12924e-30
1.57141e-31
-2.08876e-29
-1.15112e-29
-1.35099e-28
-5.31448e-28
1.15059e-26
-2.02383e-26
3.73103e-25
-4.03974e-25
7.94706e-24
-7.07993e-24
1.31264e-22
-1.02264e-22
1.85331e-21
-1.2619e-21
1.88324e-20
-1.34058e-20
1.70739e-19
-1.11348e-19
1.15391e-18
-6.97083e-19
5.75934e-18
-3.24006e-18
2.36177e-17
-1.21274e-17
8.36571e-17
-3.96041e-17
2.46858e-16
-1.0923e-16
6.07877e-16
-2.49978e-16
1.31744e-15
-4.99438e-16
2.69545e-15
-9.39261e-16
5.55892e-15
-1.76306e-15
1.27589e-14
-3.39377e-15
3.60678e-14
-7.13662e-15
5.57119e-14
-1.62398e-14
-1.96777e-14
6.68775e-14
-2.23236e-32
-1.61709e-30
2.70938e-30
-7.0433e-30
1.72115e-28
-2.79841e-28
7.53747e-27
-1.06311e-26
2.05816e-25
-2.6693e-25
4.6382e-24
-4.97348e-24
8.14351e-23
-7.54147e-23
1.19051e-21
-9.80617e-22
1.51396e-20
-1.11681e-20
1.44894e-19
-9.93252e-20
1.02354e-18
-6.57398e-19
5.3297e-18
-3.24005e-18
2.24911e-17
-1.28212e-17
8.11732e-17
-4.31122e-17
2.42193e-16
-1.21446e-16
5.95632e-16
-2.82468e-16
1.28992e-15
-5.7074e-16
2.6599e-15
-1.07787e-15
5.52294e-15
-2.03269e-15
1.18782e-14
-3.8903e-15
2.74647e-14
-7.79304e-15
5.69826e-14
-1.75584e-14
-1.80415e-14
6.79636e-14
2.32014e-31
-1.74899e-30
6.67847e-31
-3.64026e-30
6.48638e-29
-1.44788e-28
3.74058e-27
-6.07159e-27
1.33073e-25
-1.60699e-25
3.15623e-24
-3.1871e-24
5.79507e-23
-5.13987e-23
8.94225e-22
-7.14327e-22
1.18747e-20
-8.79708e-21
1.22022e-19
-8.57967e-20
9.14338e-19
-6.14633e-19
5.02873e-18
-3.20453e-18
2.24887e-17
-1.38521e-17
8.24008e-17
-4.89581e-17
2.47478e-16
-1.41898e-16
6.1436e-16
-3.40111e-16
1.34376e-15
-6.98775e-16
2.7849e-15
-1.28001e-15
5.93267e-15
-2.43674e-15
1.28077e-14
-4.88284e-15
2.79132e-14
-9.78821e-15
5.18899e-14
-1.9886e-14
-2.54316e-14
8.03124e-14
2.10878e-31
-8.97605e-31
3.11984e-31
-1.53671e-30
3.37516e-29
-6.54729e-29
2.07543e-27
-3.02504e-27
7.43164e-26
-8.71274e-26
1.8665e-24
-1.85732e-24
3.64582e-23
-3.21358e-23
6.0179e-22
-4.8177e-22
8.70555e-21
-6.46247e-21
9.86069e-20
-7.01589e-20
8.05528e-19
-5.63044e-19
4.66794e-18
-3.07319e-18
2.31213e-17
-1.48904e-17
9.43452e-17
-6.34085e-17
3.04071e-16
-2.14119e-16
7.44069e-16
-4.98082e-16
1.51575e-15
-8.52929e-16
3.19164e-15
-1.54585e-15
7.92631e-15
-3.65033e-15
2.2944e-14
-1.20234e-14
5.52602e-14
-3.57295e-14
8.28043e-14
-4.60284e-14
-4.70999e-14
9.30964e-14
8.66742e-32
-4.44632e-31
1.25344e-31
-6.06712e-31
1.44325e-29
-2.71588e-29
9.67325e-28
-1.37787e-27
3.77449e-26
-4.29149e-26
1.01452e-24
-9.89834e-25
2.12402e-23
-1.85681e-23
3.78296e-22
-3.02946e-22
5.95617e-21
-4.45845e-21
7.53616e-20
-5.44651e-20
6.93093e-19
-5.02138e-19
4.21099e-18
-2.8898e-18
2.40156e-17
-1.60994e-17
1.25794e-16
-9.39784e-17
4.52565e-16
-3.67515e-16
9.28184e-16
-6.9398e-16
1.59073e-15
-9.04948e-16
4.31051e-15
-2.98403e-15
2.24914e-14
-1.95221e-14
9.95974e-14
-7.57404e-14
1.91373e-13
-1.71687e-13
1.96282e-13
-1.5994e-13
-9.72875e-14
1.41722e-13
4.12965e-32
-2.05593e-31
4.77924e-32
-2.16764e-31
5.73807e-30
-1.03086e-29
4.17541e-28
-5.73542e-28
1.74061e-26
-1.94159e-26
5.04091e-25
-4.88745e-25
1.14394e-23
-1.00443e-23
2.21758e-22
-1.79755e-22
3.83568e-21
-2.92398e-21
5.48215e-20
-4.06462e-20
5.78236e-19
-4.3113e-19
3.74577e-18
-2.69731e-18
2.49732e-17
-1.72469e-17
1.716e-16
-1.25085e-16
6.24452e-16
-5.14645e-16
9.91905e-16
-7.82423e-16
1.45405e-15
-8.37279e-16
1.54164e-14
-9.88534e-15
1.29733e-13
-1.00013e-13
3.43623e-13
-2.26698e-13
4.03987e-13
-2.43767e-13
3.80299e-13
-2.2715e-13
-1.1054e-13
2.06879e-13
1.73518e-32
-7.94646e-32
1.62221e-32
-7.00667e-32
2.07447e-30
-3.62769e-30
1.64041e-28
-2.20878e-28
7.37974e-27
-8.15525e-27
2.32411e-25
-2.25577e-25
5.77318e-24
-5.11568e-24
1.22674e-22
-1.00889e-22
2.34498e-21
-1.81854e-21
3.82042e-20
-2.89723e-20
4.60806e-19
-3.48708e-19
3.28641e-18
-2.44764e-18
2.50851e-17
-1.77911e-17
1.99903e-16
-1.41428e-16
7.00805e-16
-5.77287e-16
9.57551e-16
-8.22638e-16
1.50962e-15
-1.15588e-15
4.07976e-14
-1.61396e-14
2.91441e-13
-1.32431e-13
3.91312e-13
-2.66381e-13
4.54583e-13
-2.47072e-13
4.45191e-13
-2.00855e-13
-1.36981e-13
3.8144e-13
6.04292e-33
-2.69546e-32
4.95994e-33
-2.08473e-32
6.93626e-31
-1.18657e-30
5.95647e-29
-7.90163e-29
2.90139e-27
-3.19528e-27
9.99862e-26
-9.74206e-26
2.73437e-24
-2.44108e-24
6.38786e-23
-5.30159e-23
1.35007e-21
-1.05583e-21
2.51309e-20
-1.91669e-20
3.41915e-19
-2.58483e-19
2.75254e-18
-2.06574e-18
2.34695e-17
-1.6512e-17
2.06692e-16
-1.51529e-16
6.98201e-16
-5.89784e-16
1.03322e-15
-8.81423e-16
2.71621e-15
-1.91238e-15
4.88909e-14
-1.33538e-14
2.92537e-13
-8.93698e-14
4.10977e-13
-2.53516e-13
4.20354e-13
-2.13787e-13
3.03272e-13
-4.75767e-14
-4.1743e-13
6.6562e-13
1.85352e-33
-8.09292e-33
1.38873e-33
-5.70772e-33
2.1452e-31
-3.5991e-31
2.00223e-29
-2.62447e-29
1.06081e-27
-1.16501e-27
4.0086e-26
-3.9063e-26
1.20636e-24
-1.07652e-24
3.09105e-23
-2.5609e-23
7.18772e-22
-5.59799e-22
1.51264e-20
-1.13833e-20
2.29743e-19
-1.71161e-19
2.09661e-18
-1.55226e-18
1.92529e-17
-1.32834e-17
2.01608e-16
-1.56219e-16
6.62047e-16
-5.99826e-16
1.07511e-15
-9.44201e-16
3.28439e-15
-1.84843e-15
3.13435e-14
-1.34415e-14
1.8875e-13
-9.56577e-14
3.01933e-13
-2.06525e-13
2.01546e-13
-1.2604e-13
1.50685e-13
-1.1776e-14
-4.20503e-12
3.90149e-12
5.01772e-34
-2.18e-33
3.5563e-34
-1.43538e-33
6.12299e-32
-1.00598e-31
6.22468e-30
-8.05534e-30
3.59407e-28
-3.9232e-28
1.48454e-26
-1.43798e-26
4.88859e-25
-4.32437e-25
1.36515e-23
-1.11798e-23
3.46498e-22
-2.65654e-22
8.09464e-21
-5.94719e-21
1.36741e-19
-9.93535e-20
1.40694e-18
-1.02652e-18
1.37554e-17
-9.36034e-18
1.88503e-16
-1.50479e-16
6.36648e-16
-6.542e-16
1.02521e-15
-8.4381e-16
2.68963e-15
-1.44847e-15
3.32101e-14
-3.7127e-14
1.88689e-13
-1.76056e-13
2.47777e-13
-2.37909e-13
1.3777e-13
-1.38069e-13
1.15524e-13
-4.33936e-17
-2.53501e-11
2.12616e-11
1.21835e-34
-5.36002e-34
8.32567e-35
-3.30682e-34
1.6037e-32
-2.58032e-32
1.78156e-30
-2.27566e-30
1.12019e-28
-1.21206e-28
5.02705e-27
-4.82373e-27
1.79703e-25
-1.5699e-25
5.42562e-24
-4.37405e-24
1.48781e-22
-1.11713e-22
3.79756e-21
-2.7138e-21
7.11424e-20
-5.02263e-20
8.3232e-19
-6.03415e-19
8.5864e-18
-5.57487e-18
1.60099e-16
-1.0989e-16
4.9939e-16
-6.06903e-16
5.73154e-16
-4.09406e-16
3.80472e-15
-2.67582e-15
1.10616e-13
-1.10062e-13
2.08199e-13
-2.43309e-13
2.81458e-13
-2.63197e-13
1.8808e-13
-1.55021e-13
7.56254e-15
1.18005e-13
-1.79305e-10
1.54251e-10
2.7003e-35
-1.20968e-34
1.77922e-35
-6.96627e-35
3.84279e-33
-6.09086e-33
4.6785e-31
-5.91995e-31
3.19379e-29
-3.43048e-29
1.54793e-27
-1.47469e-27
5.96045e-26
-5.15582e-26
1.93003e-24
-1.53571e-24
5.65456e-23
-4.16634e-23
1.55631e-21
-1.08328e-21
3.22825e-20
-2.22299e-20
4.36787e-19
-3.12435e-19
4.49641e-18
-2.89157e-18
9.38937e-17
-4.97352e-17
3.45441e-16
-3.34131e-16
2.71609e-16
-1.75783e-16
1.0446e-14
-7.96269e-15
1.64906e-13
-1.17534e-13
2.31614e-13
-2.54709e-13
2.7555e-13
-2.59246e-13
1.80233e-13
-9.74826e-14
-1.52648e-13
2.06316e-13
-1.30164e-09
1.12601e-09
5.49305e-36
-2.48426e-35
3.46767e-36
-1.34483e-35
8.45172e-34
-1.3368e-33
1.12781e-31
-1.42515e-31
8.32172e-30
-8.92818e-30
4.33787e-28
-4.13036e-28
1.78722e-26
-1.5415e-26
6.15992e-25
-4.87397e-25
1.90648e-23
-1.38858e-23
5.58552e-22
-3.81299e-22
1.28361e-20
-8.66468e-21
2.00952e-19
-1.39895e-19
2.085e-18
-1.44704e-18
3.60424e-17
-2.08097e-17
1.48032e-16
-1.38697e-16
1.81994e-16
-1.44537e-16
1.46326e-14
-1.05546e-14
1.22209e-13
-6.7299e-14
1.85606e-13
-7.76702e-14
2.06606e-13
-1.23461e-13
1.9316e-13
-1.05763e-13
-2.27427e-13
-2.14065e-13
-5.54681e-09
7.83485e-09
1.01746e-36
-4.53896e-36
6.17712e-37
-2.38892e-36
1.72133e-34
-2.75732e-34
2.50383e-32
-3.18729e-32
1.9862e-30
-2.14399e-30
1.11032e-28
-1.06364e-28
4.86696e-27
-4.21701e-27
1.77406e-25
-1.40871e-25
5.73816e-24
-4.17774e-24
1.76695e-22
-1.19633e-22
4.4831e-21
-2.98566e-21
8.00805e-20
-5.45843e-20
9.41159e-19
-6.92248e-19
1.3358e-17
-7.38299e-18
7.08691e-17
-5.48634e-17
1.53653e-16
-1.52887e-16
1.22842e-14
-7.90898e-15
3.28579e-14
-2.08415e-14
5.97679e-14
-4.58213e-15
4.02632e-13
-4.60831e-13
8.67975e-13
-8.89117e-13
1.08623e-12
-1.29424e-12
-7.00207e-09
2.643e-08
1.68042e-37
-7.16635e-37
1.00834e-37
-3.90243e-37
3.26987e-35
-5.33915e-35
5.12225e-33
-6.58772e-33
4.34268e-31
-4.72917e-31
2.59528e-29
-2.50561e-29
1.20525e-27
-1.05315e-27
4.6278e-26
-3.71413e-26
1.55236e-24
-1.14355e-24
4.96376e-23
-3.38065e-23
1.37674e-21
-9.14196e-22
2.78158e-20
-1.89313e-20
3.93832e-19
-2.84508e-19
4.2571e-18
-2.93793e-18
3.24965e-17
-2.34773e-17
1.53005e-16
-1.92276e-16
5.58037e-15
-5.86342e-15
1.02663e-14
-5.82087e-15
1.64269e-14
-2.65875e-15
1.36291e-12
-3.69374e-12
3.60357e-12
-5.01196e-12
5.51265e-12
-3.52134e-12
-3.77309e-10
1.75414e-08
2.40735e-38
-9.5034e-38
1.50331e-38
-5.78127e-38
5.76341e-36
-9.50742e-36
9.5726e-34
-1.2353e-33
8.62657e-32
-9.42621e-32
5.48959e-30
-5.31407e-30
2.697e-28
-2.37247e-28
1.09079e-26
-8.86556e-27
3.78948e-25
-2.84991e-25
1.24668e-23
-8.66677e-24
3.72753e-22
-2.49782e-22
8.50912e-21
-5.83755e-21
1.39842e-19
-1.00706e-19
1.53881e-18
-1.17938e-18
1.35066e-17
-1.04035e-17
1.73362e-16
-1.86879e-16
2.48109e-15
-4.18832e-15
3.45825e-15
-3.79196e-15
4.38646e-15
-2.34371e-15
7.01608e-12
-1.09614e-11
9.55225e-12
-1.68991e-11
1.10447e-11
-5.47041e-12
-5.68702e-12
1.4378e-09
2.9074e-39
-1.032e-38
2.01326e-39
-7.54023e-39
9.21325e-37
-1.50288e-36
1.60178e-34
-2.04282e-34
1.52853e-32
-1.65475e-32
1.03204e-30
-9.91518e-31
5.37628e-29
-4.72881e-29
2.29966e-27
-1.88495e-27
8.32941e-26
-6.40786e-26
2.81237e-24
-2.01568e-24
8.91678e-23
-6.09403e-23
2.28626e-21
-1.58944e-21
4.28382e-20
-3.14746e-20
5.41087e-19
-4.31215e-19
5.28022e-18
-4.11709e-18
1.23578e-16
-8.65897e-17
1.49094e-15
-3.05611e-15
2.13803e-15
-2.53244e-15
2.95513e-15
-1.99127e-15
5.84312e-12
-1.45069e-11
6.95042e-12
-1.56128e-11
4.63199e-12
-7.75404e-12
-1.15471e-11
8.26088e-12
2.87917e-40
-8.95424e-40
2.34855e-40
-8.34294e-40
1.29117e-37
-2.03045e-37
2.33586e-35
-2.88848e-35
2.35671e-33
-2.48635e-33
1.68664e-31
-1.58828e-31
9.36988e-30
-8.15689e-30
4.26711e-28
-3.49482e-28
1.63273e-26
-1.2764e-26
5.69453e-25
-4.21058e-25
1.88585e-23
-1.32242e-23
5.36738e-22
-3.79092e-22
1.15083e-20
-8.62486e-21
1.68665e-19
-1.36961e-19
1.75556e-18
-1.46418e-18
3.84704e-17
-2.22483e-17
8.66968e-16
-1.46717e-15
1.2114e-15
-1.32523e-15
2.16489e-15
-2.21995e-15
4.76121e-12
-1.02861e-11
4.45254e-12
-1.25813e-11
6.19493e-12
-1.25881e-11
-9.46641e-12
2.71704e-11
2.27221e-41
-6.03331e-41
2.30133e-41
-7.58217e-41
1.53264e-38
-2.26765e-38
2.88688e-36
-3.39152e-36
3.08175e-34
-3.11276e-34
2.34522e-32
-2.13559e-32
1.4001e-30
-1.1911e-30
6.83908e-29
-5.52656e-29
2.80765e-27
-2.19937e-27
1.02583e-25
-7.74189e-26
3.51849e-24
-2.5265e-24
1.09503e-22
-7.84228e-23
2.68411e-21
-2.02934e-21
4.51931e-20
-3.6946e-20
5.19906e-19
-4.6941e-19
7.96104e-18
-5.33121e-18
3.0785e-16
-3.30309e-16
5.7669e-16
-8.25756e-16
4.07283e-15
-5.26729e-15
2.12043e-12
-1.61459e-13
2.29592e-12
8.42804e-16
9.71694e-13
-1.18856e-12
-1.9767e-13
1.95717e-12
1.38308e-42
-3.03616e-42
1.87975e-42
-5.57272e-42
1.49423e-39
-2.02961e-39
2.94347e-37
-3.21348e-37
3.33594e-35
-3.16649e-35
2.71981e-33
-2.35785e-33
1.75928e-31
-1.43998e-31
9.28592e-30
-7.29305e-30
4.14585e-28
-3.19306e-28
1.61414e-26
-1.21806e-26
5.74255e-25
-4.17618e-25
1.92648e-23
-1.38658e-23
5.33932e-22
-4.03408e-22
1.02528e-20
-8.35399e-21
1.37707e-19
-1.25761e-19
1.62164e-18
-1.51523e-18
8.34799e-17
-4.13401e-17
2.83557e-16
-5.66106e-16
2.29515e-15
-1.2408e-14
9.30851e-15
-1.00458e-14
-1.57401e-16
1.24655e-14
5.58859e-14
2.05975e-14
-6.75244e-14
1.45324e-14
6.22209e-44
-1.07491e-43
1.58814e-43
-3.26641e-43
1.15944e-40
-1.40312e-40
2.40545e-38
-2.3773e-38
2.91595e-36
-2.5458e-36
2.57436e-34
-2.08094e-34
1.81911e-32
-1.40414e-32
1.04593e-30
-7.83718e-31
5.12513e-29
-3.79367e-29
2.15819e-27
-1.58484e-27
8.05812e-26
-5.81177e-26
2.88136e-24
-2.05334e-24
8.9322e-23
-6.63027e-23
1.94422e-21
-1.56526e-21
3.05619e-20
-2.69082e-20
3.88315e-19
-3.7765e-19
9.56477e-18
-3.89859e-18
9.48822e-17
-2.92047e-16
2.49976e-15
-1.16865e-14
4.93222e-16
-4.12609e-15
-1.77792e-15
1.45053e-14
-1.82795e-15
2.18433e-14
-6.90037e-14
1.1645e-14
1.9434e-45
-2.4362e-45
9.57862e-45
-1.44294e-44
6.87807e-42
-7.09766e-42
1.51988e-39
-1.31203e-39
1.99652e-37
-1.55424e-37
1.93098e-35
-1.40989e-35
1.50465e-33
-1.06455e-33
9.51659e-32
-6.61886e-32
5.14285e-30
-3.5529e-30
2.36621e-28
-1.63609e-28
9.43943e-27
-6.53517e-27
3.58367e-25
-2.4692e-25
1.22855e-23
-8.76225e-24
3.04185e-22
-2.36383e-22
5.42017e-21
-4.55317e-21
7.70417e-20
-6.83607e-20
7.78368e-19
-3.55163e-19
6.71526e-17
-6.38711e-17
2.06931e-15
-8.90378e-15
6.42152e-16
-3.20014e-15
-1.84838e-15
1.12609e-14
-1.11148e-15
1.60586e-14
1.74435e-14
7.13553e-16
3.82656e-47
-3.13552e-47
3.98776e-46
-4.29512e-46
2.94098e-43
-2.41324e-43
7.06054e-41
-5.01352e-41
1.02374e-38
-6.71074e-39
1.09712e-36
-6.86612e-37
9.55279e-35
-5.90721e-35
6.7188e-33
-4.12456e-33
4.01774e-31
-2.47236e-31
2.03344e-29
-1.2643e-29
8.82507e-28
-5.57783e-28
3.58088e-26
-2.29413e-26
1.34771e-24
-8.94758e-25
3.81047e-23
-2.75222e-23
7.58808e-22
-6.06286e-22
1.08391e-20
-8.68594e-21
5.91796e-20
-3.91764e-20
1.27326e-17
-1.02917e-17
1.04204e-15
-1.36403e-15
3.65795e-16
-3.47129e-16
-1.64517e-15
6.72665e-15
-1.34409e-15
8.56278e-15
1.07057e-14
-8.48892e-16
4.19654e-49
-1.44908e-49
1.03893e-47
-7.64021e-48
8.28048e-45
-4.76261e-45
2.22435e-42
-1.13969e-42
3.63808e-40
-1.78452e-40
4.39383e-38
-2.13989e-38
4.35366e-36
-2.13093e-36
3.43266e-34
-1.67717e-34
2.28876e-32
-1.14442e-32
1.28451e-30
-6.59303e-31
6.15224e-29
-3.2611e-29
2.72091e-27
-1.51416e-27
1.1278e-25
-6.61251e-26
3.64523e-24
-2.33416e-24
8.29399e-23
-5.82233e-23
1.11666e-21
-7.66697e-22
5.34205e-21
-4.44009e-21
1.65633e-18
-1.4494e-18
1.02699e-16
-5.4993e-17
2.83607e-17
6.91537e-17
-1.12828e-15
2.98396e-15
-1.20057e-15
3.54664e-15
5.31556e-15
-1.43745e-15
1.61005e-51
-8.49442e-53
1.52695e-49
-4.88531e-50
1.31399e-46
-2.89333e-47