/*--------------------------------*- C++ -*----------------------------------*\
| =========                 |                                                 |
| \\      /  F ield         | OpenFOAM: The Open Source CFD Toolbox           |
|  \\    /   O peration     | Version:  2206                                  |
|   \\  /    A nd           | Website:  www.openfoam.com                      |
|    \\/     M anipulation  |                                                 |
\*---------------------------------------------------------------------------*/
FoamFile
{
    version     2.0;
    format      ascii;
    arch        "LSB;label=32;scalar=64";
    class       volScalarField;
    location    "0.35";
    object      p;
}
// * * * * * * * * * * * * * * * * * * * * * * * * * * * * * * * * * * * * * //

dimensions      [1 -1 -2 0 0 0 0];

internalField   nonuniform List<scalar> 
2268
(
1456.02
1456.69
1457.75
1459.01
1460.46
1462.34
1464.7
1467.53
1470.77
1474.38
1478.29
1482.41
1486.64
1490.87
1494.99
1498.85
1502.31
1505.2
1507.42
1508.89
1508.95
1509.38
1506.98
1274.13
1274.82
1276.17
1277.62
1279.28
1281.35
1283.91
1286.93
1290.38
1294.21
1298.35
1302.74
1307.29
1311.9
1316.47
1320.87
1324.99
1328.68
1331.88
1334.5
1336.83
1338.2
1340.05
1089.28
1090.12
1091.99
1093.83
1095.89
1098.35
1101.28
1104.71
1108.63
1112.99
1117.72
1122.73
1127.94
1133.24
1138.53
1143.69
1148.61
1153.2
1157.4
1161.09
1164.62
1166.64
1170.12
901.652
902.557
905.054
907.483
910.093
913.052
916.497
920.498
925.067
930.17
935.74
941.691
947.961
954.393
960.857
967.21
973.31
979.001
984.201
988.657
992.706
994.729
997.752
711.487
712.078
715.065
718.175
721.401
724.931
728.995
733.728
739.17
745.293
752.018
759.254
766.909
774.862
782.947
790.963
798.7
805.918
812.436
817.905
822.453
824.942
827.223
518.582
518.713
521.728
525.547
529.347
533.366
538.013
543.506
549.919
557.254
565.461
574.457
584.124
594.11
604.365
614.624
624.6
633.937
642.303
649.274
654.797
658.214
660.408
324.743
322.755
324.692
328.768
332.778
337.221
342.623
349.115
356.688
365.266
374.736
385.127
396.63
409.696
423.458
437.407
451.051
463.761
474.872
483.845
490.51
493.921
495.077
131.386
127.319
125.05
127.043
129.593
133.339
138.833
146.032
155.206
166.772
180.486
195.298
210.497
225.333
241.359
258.754
276.749
293.813
308.466
319.86
327.095
330.662
316.957
3.4228
3.41571
3.40055
3.37822
3.34986
3.31691
3.28102
3.24372
3.20635
3.16993
3.13536
3.10337
3.0745
3.04915
3.02762
3.01014
2.9969
2.98803
2.98359
3.25089
3.244
3.22853
3.20529
3.17554
3.14102
3.10353
3.06472
3.026
2.9885
2.95308
2.92042
2.89101
2.86526
2.84343
2.82574
2.81235
2.80338
2.79889
3.08606
3.08001
3.06406
3.03882
3.00608
2.96818
2.92743
2.88567
2.84441
2.80477
2.76758
2.73348
2.70293
2.67629
2.65378
2.63559
2.62183
2.61263
2.60803
2.92638
2.92428
2.90835
2.87958
2.84162
2.79816
2.7522
2.70587
2.66075
2.61794
2.57819
2.54204
2.50987
2.48196
2.45847
2.43955
2.42528
2.41574
2.41098
2.76779
2.77982
2.76468
2.72907
2.68213
2.63016
2.57682
2.52427
2.47407
2.42715
2.38415
2.34544
2.31125
2.28177
2.25709
2.23728
2.22239
2.21246
2.2075
2.60891
2.6547
2.63617
2.58767
2.52657
2.46253
2.39958
2.33939
2.28299
2.23122
2.18444
2.14279
2.10635
2.07512
2.04913
2.02835
2.01279
2.00243
1.99727
2.4358
2.55778
2.53231
2.45333
2.37133
2.29189
2.21742
2.14851
2.08542
2.0285
1.97775
1.93306
1.8943
1.86132
1.83401
1.81228
1.79605
1.78527
1.77989
1.87108
2.47417
2.46502
2.32138
2.20795
2.11229
2.0265
1.94889
1.87919
1.81727
1.76269
1.71512
1.67421
1.63963
1.61115
1.58856
1.57172
1.56055
1.55498
23.8755
13.0762
10.966
12.423
13.2205
14.2518
15.8628
17.9891
20.7524
24.4219
29.4739
37.6751
48.9656
64.8624
86.7888
113.298
140.955
164.02
181.582
194.123
196.528
185.596
122.536
-1.29557
-1.31613
-1.27583
-1.26784
-1.26659
-1.2637
-1.25753
-1.24581
-1.22295
-1.19683
-1.11254
-0.571127
1.77887
4.91806
11.4443
26.3275
50.0773
74.1782
96.0954
113.087
118.109
110.562
80.3317
-1.40017
-1.40589
-1.39101
-1.3871
-1.38538
-1.38346
-1.37981
-1.37399
-1.36663
-1.3629
-1.37515
-1.45452
-1.44908
-1.41403
-1.46535
-0.897684
3.5564
13.1007
28.1721
44.8554
56.5236
61.6268
58.6994
-1.51613
-1.51518
-1.51178
-1.51049
-1.50924
-1.50793
-1.50652
-1.50539
-1.50618
-1.51299
-1.53357
-1.57305
-1.58914
-1.58943
-1.62847
-1.70027
-1.60202
-1.70951
-0.319302
6.93866
18.5
31.0002
36.6423
-1.64285
-1.64172
-1.6361
-1.63468
-1.63378
-1.63361
-1.63419
-1.63613
-1.64077
-1.65026
-1.66671
-1.68933
-1.7092
-1.73162
-1.77389
-1.85781
-1.83872
-1.95783
-2.151
-2.16582
-1.92703
0.976304
6.54696
-1.76672
-1.76471
-1.7598
-1.7584
-1.75816
-1.75897
-1.76095
-1.76462
-1.77089
-1.78087
-1.79536
-1.81401
-1.83541
-1.86236
-1.90028
-1.95376
-2.00463
-2.13286
-2.34584
-2.39739
-2.51376
-2.56243
-2.58214
-1.89011
-1.88821
-1.88377
-1.8823
-1.88256
-1.88408
-1.88689
-1.89141
-1.89828
-1.90822
-1.92176
-1.93915
-1.96082
-1.98876
-2.02591
-2.07552
-2.13068
-2.20508
-2.31856
-2.44041
-2.59488
-2.65249
-2.64542
-2.01337
-2.0116
-2.00789
-2.00643
-2.00698
-2.00893
-2.01218
-2.01705
-2.02406
-2.03377
-2.04668
-2.06326
-2.08422
-2.1109
-2.14496
-2.18742
-2.23798
-2.29581
-2.36995
-2.45451
-2.53493
-2.58955
-2.63155
-2.13686
-2.13515
-2.1321
-2.1308
-2.13151
-2.13367
-2.13709
-2.14203
-2.14894
-2.15832
-2.17065
-2.1864
-2.2062
-2.231
-2.26186
-2.29972
-2.34476
-2.39653
-2.45737
-2.52163
-2.58153
-2.63353
-2.6756
-2.26102
-2.25926
-2.25664
-2.25552
-2.25632
-2.25854
-2.26195
-2.26678
-2.27344
-2.2824
-2.29408
-2.30891
-2.32737
-2.35007
-2.37771
-2.41086
-2.44965
-2.49362
-2.54245
-2.59408
-2.64455
-2.69048
-2.73006
-2.38596
-2.38414
-2.38174
-2.38078
-2.38162
-2.38379
-2.38708
-2.39169
-2.39801
-2.40647
-2.41745
-2.43126
-2.44827
-2.46888
-2.49349
-2.52241
-2.55558
-2.59254
-2.63254
-2.67437
-2.71595
-2.75462
-2.78817
-2.51173
-2.50986
-2.50759
-2.50677
-2.5076
-2.50966
-2.51277
-2.5171
-2.52304
-2.53096
-2.54117
-2.55392
-2.56945
-2.58802
-2.60986
-2.63507
-2.66348
-2.69454
-2.72749
-2.76141
-2.79512
-2.82699
-2.85494
-2.63832
-2.63641
-2.63431
-2.63364
-2.63447
-2.63639
-2.63928
-2.64333
-2.64886
-2.65622
-2.66565
-2.67733
-2.69139
-2.708
-2.72727
-2.74922
-2.77353
-2.79967
-2.82694
-2.85464
-2.88183
-2.90736
-2.92997
-2.76571
-2.76381
-2.76197
-2.76151
-2.76237
-2.76419
-2.76689
-2.77066
-2.7758
-2.78261
-2.79128
-2.80191
-2.81456
-2.8293
-2.84619
-2.86518
-2.8859
-2.9078
-2.93029
-2.95283
-2.97467
-2.99477
-3.01237
-2.89392
-2.89205
-2.89063
-2.8905
-2.89146
-2.89324
-2.89581
-2.89935
-2.90414
-2.91044
-2.9184
-2.92805
-2.93937
-2.95237
-2.96707
-2.98334
-3.00084
-3.01901
-3.03733
-3.05537
-3.0725
-3.08776
-3.10054
-3.02295
-3.02117
-3.02034
-3.02067
-3.02184
-3.02368
-3.02621
-3.02959
-3.0341
-3.03996
-3.04728
-3.05605
-3.06618
-3.07762
-3.09034
-3.10416
-3.11871
-3.13349
-3.14807
-3.16205
-3.17478
-3.18534
-3.1932
-3.15283
-3.15123
-3.15116
-3.15206
-3.15356
-3.1556
-3.1582
-3.16153
-3.16584
-3.17135
-3.17814
-3.18614
-3.19524
-3.20532
-3.21631
-3.228
-3.23994
-3.25164
-3.26278
-3.27303
-3.28163
-3.28761
-3.29043
-3.28359
-3.28225
-3.28309
-3.2847
-3.28665
-3.28901
-3.29182
-3.29522
-3.29945
-3.30473
-3.31112
-3.31853
-3.32677
-3.33572
-3.34525
-3.35516
-3.36493
-3.374
-3.38208
-3.38892
-3.39377
-3.39558
-3.39395
-3.41525
-3.41429
-3.41614
-3.41853
-3.42106
-3.42388
-3.42704
-3.43065
-3.43494
-3.44014
-3.44633
-3.45337
-3.46104
-3.46913
-3.47755
-3.48609
-3.49426
-3.50137
-3.50706
-3.51111
-3.51289
-3.5114
-3.50665
-3.54781
-3.54733
-3.55023
-3.55347
-3.55669
-3.56011
-3.56375
-3.5677
-3.57219
-3.57749
-3.58371
-3.59071
-3.59819
-3.60588
-3.61369
-3.62146
-3.62879
-3.63495
-3.63941
-3.64194
-3.64203
-3.63883
-3.6326
-3.68124
-3.68131
-3.68525
-3.68936
-3.69335
-3.69751
-3.70178
-3.70621
-3.71105
-3.71662
-3.72312
-3.73044
-3.73822
-3.74615
-3.75409
-3.76197
-3.76952
-3.77609
-3.78103
-3.7841
-3.7848
-3.78251
-3.77703
-3.81547
-3.81614
-3.82104
-3.82598
-3.83081
-3.83582
-3.84087
-3.84594
-3.85131
-3.85736
-3.86441
-3.87241
-3.88105
-3.88997
-3.89902
-3.90819
-3.91739
-3.9261
-3.93374
-3.94001
-3.9444
-3.94662
-3.94583
-3.95039
-3.95166
-3.95738
-3.96308
-3.96877
-3.9747
-3.98066
-3.98657
-3.99271
-3.99953
-4.00743
-4.01655
-4.02665
-4.03742
-4.04872
-4.06062
-4.07321
-4.0862
-4.09922
-4.11196
-4.12403
-4.13609
-4.14753
-4.08587
-4.08772
-4.09406
-4.1004
-4.10689
-4.11375
-4.12073
-4.12769
-4.13489
-4.14284
-4.15206
-4.16282
-4.17506
-4.18861
-4.20339
-4.21962
-4.23756
-4.25723
-4.27865
-4.30163
-4.32658
-4.35664
-4.39202
-4.22175
-4.2241
-4.23085
-4.23766
-4.24483
-4.25259
-4.26062
-4.26882
-4.27741
-4.28695
-4.29801
-4.31105
-4.32619
-4.34347
-4.36298
-4.38509
-4.4103
-4.43901
-4.47176
-4.50893
-4.55283
-4.61119
-4.68525
-4.35781
-4.36057
-4.36754
-4.37463
-4.38231
-4.39085
-4.39994
-4.4095
-4.41978
-4.43135
-4.44484
-4.46082
-4.47962
-4.50152
-4.52681
-4.55609
-4.59017
-4.62979
-4.67636
-4.73123
-4.80006
-4.89672
-5.02467
-4.49379
-4.49688
-4.50388
-4.51106
-4.51907
-4.52826
-4.53836
-4.54935
-4.56155
-4.57553
-4.59195
-4.61147
-4.63456
-4.66171
-4.69343
-4.73058
-4.77435
-4.82578
-4.88765
-4.96245
-5.06057
-5.20354
-5.39581
-4.62934
-4.6327
-4.63958
-4.64672
-4.6549
-4.6646
-4.67564
-4.68808
-4.70233
-4.71897
-4.73868
-4.76214
-4.78988
-4.82252
-4.86075
-4.90562
-4.95867
-5.0213
-5.09777
-5.19167
-5.31815
-5.50798
-5.75773
-4.76406
-4.76767
-4.77432
-4.78134
-4.7896
-4.79973
-4.81162
-4.82549
-4.84182
-4.86122
-4.88435
-4.91187
-4.94425
-4.9822
-5.02644
-5.07814
-5.13897
-5.21076
-5.29828
-5.40634
-5.55133
-5.76961
-6.04843
-4.89755
-4.90142
-4.90775
-4.91466
-4.92294
-4.93346
-4.94615
-4.9614
-4.97976
-5.00186
-5.0283
-5.05964
-5.09631
-5.13895
-5.1883
-5.24549
-5.31229
-5.39076
-5.48503
-5.60118
-5.75062
-5.96797
-6.24116
-5.02943
-5.0336
-5.03955
-5.0464
-5.05474
-5.06563
-5.0791
-5.09566
-5.11593
-5.14049
-5.16988
-5.20451
-5.24474
-5.29111
-5.34438
-5.4056
-5.4767
-5.55971
-5.65803
-5.77887
-5.92441
-6.12599
-6.37525
-5.1594
-5.16395
-5.16945
-5.17635
-5.18479
-5.19608
-5.2103
-5.22808
-5.25005
-5.27672
-5.30851
-5.34569
-5.38853
-5.43749
-5.49337
-5.55718
-5.6309
-5.7163
-5.81661
-5.93889
-6.079
-6.26966
-6.50436
-5.28719
-5.29218
-5.2972
-5.30424
-5.31283
-5.32452
-5.33947
-5.35834
-5.38174
-5.41007
-5.4436
-5.48248
-5.52695
-5.57746
-5.63488
-5.70022
-5.77507
-5.86082
-5.95981
-6.07618
-6.20703
-6.3794
-6.59626
-5.41248
-5.41794
-5.42249
-5.42971
-5.43849
-5.45058
-5.46619
-5.48595
-5.51042
-5.53988
-5.57444
-5.6142
-5.65942
-5.7107
-5.76904
-5.83554
-5.91102
-5.9966
-6.09206
-6.19671
-6.31265
-6.43885
-6.59171
-5.5351
-5.54103
-5.5451
-5.55253
-5.56152
-5.57396
-5.59008
-5.61049
-5.63563
-5.66564
-5.70054
-5.74042
-5.78568
-5.83716
-5.89606
-5.96373
-6.04023
-6.12685
-6.22108
-6.31839
-6.4253
-6.50654
-6.58498
-5.65529
-5.66165
-5.66527
-5.67289
-5.68209
-5.69479
-5.71127
-5.73204
-5.7574
-5.78742
-5.82205
-5.86143
-5.90616
-5.95738
-6.01649
-6.0849
-6.16241
-6.25055
-6.34749
-6.44751
-6.56486
-6.64833
-6.71802
-5.77336
-5.78015
-5.78339
-5.79114
-5.80056
-5.81343
-5.83007
-5.85088
-5.87608
-5.90564
-5.93953
-5.97797
-6.02178
-6.0723
-6.131
-6.199
-6.27613
-6.36367
-6.46302
-6.56945
-6.70946
-6.83908
-6.96969
-5.88864
-5.89587
-5.89888
-5.90666
-5.91628
-5.9292
-5.9458
-5.96636
-5.99103
-6.01977
-6.05258
-6.08981
-6.13239
-6.18171
-6.23908
-6.30512
-6.37967
-6.46334
-6.55993
-6.66659
-6.81605
-7.00079
-7.23652
-5.99906
-6.00668
-6.00966
-6.01739
-6.02715
-6.04002
-6.05635
-6.07636
-6.10018
-6.12778
-6.15925
-6.19501
-6.23599
-6.28344
-6.33836
-6.40105
-6.47139
-6.54966
-6.63883
-6.73656
-6.86182
-7.0484
-7.27299
-6.10368
-6.11127
-6.1146
-6.12227
-6.13214
-6.14485
-6.16071
-6.17991
-6.20256
-6.22874
-6.25858
-6.29252
-6.33134
-6.37607
-6.4276
-6.48631
-6.55241
-6.62631
-6.70878
-6.79651
-6.88534
-7.00061
-6.96495
-6.20752
-6.21485
-6.21902
-6.22671
-6.23662
-6.24906
-6.26423
-6.28234
-6.30353
-6.32799
-6.35594
-6.38774
-6.42396
-6.46534
-6.51269
-6.56678
-6.62843
-6.69849
-6.77731
-6.86319
-6.94666
-7.0273
-6.85545
-6.31555
-6.32473
-6.32932
-6.33692
-6.34659
-6.35845
-6.37262
-6.38923
-6.40848
-6.43062
-6.45592
-6.48469
-6.51722
-6.55387
-6.59519
-6.64214
-6.69614
-6.75901
-6.83317
-6.92217
-7.03055
-7.16435
-7.22045
-25.4481
4.99442
10.3485
6.11379
8.21363
-21.7918
-23.7831
-12.5357
32.0131
6.10207
-10.5827
-17.7384
30.9914
22.4224
6.43564
-6.69253
16.9425
29.9319
34.9165
9.16947
-2.11199
-1.84509
-0.196999
14.1881
-2.66045
-2.68855
-2.72006
-2.56313
-2.70423
-2.78215
-2.79483
-2.91462
-2.71933
-2.76532
-2.81723
-2.93809
-2.76982
-2.81252
-2.84967
-2.87004
-2.81897
-2.8448
-2.85931
-2.85641
-2.87917
-2.89632
-2.89661
-2.86704
-2.94904
-2.96167
-2.95785
-2.92532
-3.02711
-3.03697
-3.03914
-3.03086
-3.11094
-3.11775
-3.12077
-3.12028
-3.1987
-3.20093
-3.20016
-3.18617
-3.29051
-3.28647
-3.27712
-3.26018
-3.38929
-3.37939
-3.36114
-3.33576
-3.49877
-3.48605
-3.46446
-3.44152
-3.62267
-3.60693
-3.5811
-3.56872
-3.767
-3.74416
-3.70201
-3.64052
-3.94003
-3.91362
-3.85313
-3.69345
-4.15565
-4.14493
-4.09473
-3.93759
-4.42827
-4.44596
-4.42608
-4.32404
-4.76704
-4.82025
-4.80661
-4.72355
-5.17312
-5.29586
-5.30976
-5.19408
-5.61425
-5.79029
-5.8218
-5.69343
-6.02571
-6.2182
-6.24683
-6.1214
-6.33863
-6.55905
-6.64521
-6.55853
-6.51654
-6.75218
-6.89559
-6.93346
-6.61226
-6.80298
-6.90921
-6.87972
-6.72813
-6.83108
-6.80267
-6.69134
-6.83629
-6.88205
-6.73483
-6.70057
-6.79504
-6.7763
-6.61944
-6.54916
-6.69203
-6.4826
-6.43191
-6.4701
-6.77334
-6.59807
-6.60603
-6.64924
-7.13552
-7.08629
-7.19115
-7.18029
-7.61414
-7.946
-8.14453
-7.94247
-7.80296
-9.2161
-10.1034
-10.1935
-7.19461
-9.79798
-15.9906
-24.0717
-6.60763
-5.4333
10.7855
-57.7637
-7.61771
-7.27708
-6.65922
-80.1684
2.32985
2.51873
2.33143
2.18489
2.06254
1.95675
1.86485
1.78209
1.70809
1.64283
1.58574
1.53631
1.49406
1.4585
1.42929
1.40619
1.389
1.37759
1.3719
3.09883
2.60871
2.20198
2.04848
1.94196
1.83699
1.74215
1.65627
1.57947
1.51202
1.45334
1.40278
1.35972
1.3236
1.29399
1.27062
1.25324
1.24169
1.23592
-6.30301
3.01162
2.12536
1.91472
1.81867
1.71402
1.61486
1.52567
1.44635
1.37701
1.31706
1.26564
1.22199
1.18549
1.15563
1.13209
1.11459
1.10296
1.09715
-13.4339
-3.10272
1.8083
1.79031
1.6913
1.58722
1.483
1.38992
1.30832
1.23745
1.1766
1.12464
1.08068
1.04402
1.01409
0.990507
0.97299
0.96136
0.955544
-5.38429
-13.363
1.11486
1.7385
1.5793
1.45346
1.345
1.24838
1.16481
1.09294
1.03167
0.979574
0.935639
0.899083
0.869266
0.845801
0.828381
0.816823
0.811048
11.4072
-11.8737
0.746543
1.69249
1.48935
1.31505
1.1983
1.10033
1.01529
0.943119
0.882026
0.830282
0.786747
0.750579
0.721104
0.697926
0.680732
0.669329
0.663638
-0.449368
-5.0157
-5.12055
1.19953
1.36825
1.17622
1.04024
0.943703
0.859146
0.787652
0.72749
0.676653
0.633941
0.598475
0.569582
0.546874
0.530039
0.518878
0.513316
-3.53649
0.269556
-3.08016
0.682479
1.15673
1.01661
0.872673
0.777546
0.695809
0.626317
0.567936
0.518634
0.477201
0.442772
0.414718
0.392667
0.376324
0.365491
0.360097
-3.14032
-2.77791
2.36254
0.537395
0.944432
0.833924
0.693152
0.601457
0.524818
0.458981
0.403346
0.356244
0.316562
0.283517
0.256561
0.235358
0.219635
0.209208
0.204016
-2.95156
-2.90096
3.0379
0.632212
0.771411
0.632775
0.500256
0.415631
0.346401
0.285761
0.233821
0.189575
0.152106
0.120789
0.0951895
0.0750229
0.0600444
0.0500964
0.0451346
-2.86122
-2.58492
2.89473
-0.0663143
0.398476
0.386975
0.291702
0.219987
0.161099
0.107082
0.0596324
0.0188234
-0.0160202
-0.0453003
-0.0693017
-0.08825
-0.102359
-0.111759
-0.11646
-2.81509
-2.13189
1.83133
-0.806406
-0.0886
0.110629
0.0714119
0.0167301
-0.0298685
-0.07633
-0.118741
-0.155701
-0.187605
-0.214597
-0.236793
-0.254358
-0.267474
-0.276255
-0.280661
-2.84464
-1.88895
-1.122
-1.64097
-0.351038
-0.135996
-0.149471
-0.18915
-0.224418
-0.263499
-0.300683
-0.333593
-0.362364
-0.386894
-0.407134
-0.423179
-0.435191
-0.443276
-0.447347
-2.99663
-2.67804
-2.16085
-2.20423
-0.552054
-0.340915
-0.361344
-0.394045
-0.420749
-0.453448
-0.485574
-0.514425
-0.539973
-0.561939
-0.580136
-0.594565
-0.605383
-0.612695
-0.616388
-3.18045
-3.81131
-3.30187
-2.60396
-0.704295
-0.526041
-0.564008
-0.596815
-0.61802
-0.645489
-0.672925
-0.697823
-0.720122
-0.739466
-0.755578
-0.768341
-0.777901
-0.784373
-0.787645
-3.23887
-3.19923
-5.63198
-4.5461
-1.00337
-0.734421
-0.76846
-0.799684
-0.816301
-0.839299
-0.862413
-0.883496
-0.902542
-0.919226
-0.933223
-0.944306
-0.952575
-0.958155
-0.960973
-3.276
-3.37383
-3.01353
-3.91683
-1.21373
-0.949258
-0.980757
-1.00255
-1.01555
-1.03477
-1.05381
-1.07121
-1.08701
-1.101
-1.11285
-1.12225
-1.12921
-1.13387
-1.13621
-3.2871
-3.1926
-2.57547
1.32263
-0.492991
-1.11653
-1.191
-1.20257
-1.21569
-1.2317
-1.24689
-1.26076
-1.27332
-1.28458
-1.29424
-1.30196
-1.30761
-1.31135
-1.3132
-3.35347
-3.10447
-2.63663
-2.07279
-1.28709
-1.3482
-1.3856
-1.40554
-1.41788
-1.43003
-1.44152
-1.45188
-1.46124
-1.46974
-1.47719
-1.48321
-1.48757
-1.49039
-1.49174
-3.52547
-3.82474
-3.60492
-2.71859
-1.65184
-1.56631
-1.58898
-1.61428
-1.62225
-1.63003
-1.63762
-1.64434
-1.65051
-1.65624
-1.66145
-1.66577
-1.66888
-1.67079
-1.67166
-3.64329
-4.36874
-6.02813
-5.96073
-2.42026
-1.78661
-1.80218
-1.82884
-1.82879
-1.83188
-1.83511
-1.83796
-1.84088
-1.84382
-1.84678
-1.84942
-1.85131
-1.85235
-1.85276
-3.53602
-2.14818
-2.21371
-3.82248
-2.17466
-1.95208
-2.02248
-2.04252
-2.03687
-2.03565
-2.03388
-2.0326
-2.03214
-2.03222
-2.0329
-2.03389
-2.03461
-2.03484
-2.03483
-3.75434
-3.24816
1.18915
0.558753
-1.17419
-2.11539
-2.25785
-2.25535
-2.2473
-2.24111
-2.23377
-2.22811
-2.22411
-2.22124
-2.21961
-2.21896
-2.21856
-2.21804
-2.21764
-4.11252
-3.78928
-2.86224
-0.258755
-1.76563
-2.50762
-2.50943
-2.48046
-2.46353
-2.44809
-2.43448
-2.42421
-2.41654
-2.41068
-2.40671
-2.40441
-2.40292
-2.40172
-2.40097
-4.51288
-4.15225
-3.8406
-3.42459
-3.26522
-2.98853
-2.78381
-2.71838
-2.6832
-2.65584
-2.63539
-2.62038
-2.60906
-2.60027
-2.594
-2.59006
-2.5875
-2.58566
-2.5846
-4.9147
-4.26199
-4.13745
-3.56179
-3.34427
-3.21441
-3.03895
-2.95151
-2.89959
-2.86237
-2.83544
-2.81587
-2.80115
-2.78966
-2.78126
-2.77573
-2.77211
-2.76966
-2.76833
-5.35075
-4.584
-6.94476
-3.72202
-3.41873
-3.36303
-3.25278
-3.16665
-3.10924
-3.06596
-3.03371
-3.01009
-2.9923
-2.97846
-2.96819
-2.96121
-2.9566
-2.95356
-2.95196
-5.69761
-5.67932
-4.06216
-3.76177
-3.4483
-3.53427
-3.45365
-3.37131
-3.31341
-3.26626
-3.22986
-3.20271
-3.18215
-3.16631
-3.15451
-3.1463
-3.14078
-3.1372
-3.13535
-5.89556
-5.03206
-2.11751
-2.86397
-3.74827
-3.732
-3.6494
-3.57209
-3.5137
-3.46353
-3.4239
-3.39361
-3.37054
-3.35298
-3.33997
-3.33077
-3.3245
-3.32042
-3.31836
-7.2635
-6.48981
-3.08507
-2.39782
-4.01407
-3.97014
-3.85383
-3.77464
-3.71131
-3.65795
-3.61569
-3.58271
-3.5574
-3.53835
-3.52438
-3.51444
-3.50758
-3.50312
-3.50086
-6.14579
-4.00015
-2.28337
-3.78976
-4.52209
-4.21529
-4.07171
-3.97953
-3.90646
-3.84945
-3.80486
-3.76973
-3.7426
-3.72234
-3.70763
-3.69717
-3.6899
-3.68516
-3.68278
-5.44789
-2.17836
-3.28462
-4.95164
-4.75914
-4.43684
-4.28652
-4.17872
-4.09779
-4.03737
-3.99084
-3.95428
-3.92596
-3.90486
-3.88966
-3.87888
-3.87137
-3.86648
-3.86403
-6.86019
-5.16201
-5.45768
-5.07375
-4.88774
-4.64149
-4.48406
-4.36843
-4.28372
-4.22086
-4.17314
-4.13599
-4.10723
-4.08579
-4.07039
-4.05951
-4.05193
-4.04702
-4.04456
-6.43899
-6.01733
-5.56299
-5.26469
-5.03734
-4.81931
-4.66332
-4.54833
-4.46307
-4.39944
-4.35154
-4.31464
-4.28622
-4.26503
-4.24979
-4.23903
-4.23157
-4.22676
-4.22436
-6.44952
-6.04958
-5.74118
-5.41944
-5.17496
-4.97646
-4.82841
-4.71801
-4.63512
-4.57283
-4.526
-4.49022
-4.46287
-4.4425
-4.42782
-4.41746
-4.4103
-4.4057
-4.40342
-6.53885
-6.14048
-5.87076
-5.55966
-5.29636
-5.11794
-4.98051
-4.87722
-4.79954
-4.74085
-4.69651
-4.6628
-4.63721
-4.61822
-4.60451
-4.59483
-4.58815
-4.58389
-4.58178
-7.37386
-6.10527
-5.98257
-5.68635
-5.40002
-5.24337
-5.11992
-5.02647
-4.9565
-4.90347
-4.86316
-4.83251
-4.80938
-4.79227
-4.77993
-4.7712
-4.76519
-4.76137
-4.75949
-9.43788
-5.95162
-6.05199
-5.76338
-5.49078
-5.35329
-5.24764
-5.16685
-5.10668
-5.06105
-5.02615
-4.99957
-4.97956
-4.96482
-4.95419
-4.94667
-4.9415
-4.93823
-4.93663
-21.7718
-5.69849
-6.06339
-5.7545
-5.55925
-5.44935
-5.36525
-5.29984
-5.25117
-5.21428
-5.18594
-5.16429
-5.14802
-5.13607
-5.12747
-5.12138
-5.11721
-5.11457
-5.11328
-47.8645
-6.56976
-5.79308
-5.72398
-5.61829
-5.53636
-5.47516
-5.42699
-5.39112
-5.36395
-5.34303
-5.32703
-5.31503
-5.30624
-5.29992
-5.29545
-5.29239
-5.29046
-5.28952
-135.659
-6.70613
-5.75379
-5.72965
-5.67157
-5.61819
-5.58001
-5.55011
-5.52799
-5.51126
-5.49839
-5.48856
-5.4812
-5.47582
-5.47196
-5.46923
-5.46736
-5.46618
-5.4656
-219.323
-13.2227
-6.26447
-5.81656
-5.73101
-5.69818
-5.68127
-5.66979
-5.66191
-5.65612
-5.65173
-5.64841
-5.64595
-5.64417
-5.64291
-5.64202
-5.64142
-5.64104
-5.64086
)
;

boundaryField
{
    leftWall
    {
        type            calculated;
        value           nonuniform List<scalar> 
50
(
1456.02
1274.13
1089.28
901.652
711.487
518.582
324.743
131.386
23.8755
-1.29557
-1.40017
-1.51613
-1.64285
-1.76672
-1.89011
-2.01337
-2.13686
-2.26102
-2.38596
-2.51173
-2.63832
-2.76571
-2.89392
-3.02295
-3.15283
-3.28359
-3.41525
-3.54781
-3.68124
-3.81547
-3.95039
-4.08587
-4.22175
-4.35781
-4.49379
-4.62934
-4.76406
-4.89755
-5.02943
-5.1594
-5.28719
-5.41248
-5.5351
-5.65529
-5.77336
-5.88864
-5.99906
-6.10368
-6.20752
-6.31555
)
;
    }
    rightWall
    {
        type            calculated;
        value           nonuniform List<scalar> 
50
(
2.98359
2.79889
2.60803
2.41098
2.2075
1.99727
1.77989
1.55498
1.3719
1.23592
1.09715
0.955544
0.811048
0.663638
0.513316
0.360097
0.204016
0.0451346
-0.11646
-0.280661
-0.447347
-0.616388
-0.787645
-0.960973
-1.13621
-1.3132
-1.49174
-1.67166
-1.85276
-2.03483
-2.21764
-2.40097
-2.5846
-2.76833
-2.95196
-3.13535
-3.31836
-3.50086
-3.68278
-3.86403
-4.04456
-4.22436
-4.40342
-4.58178
-4.75949
-4.93663
-5.11328
-5.28952
-5.4656
-5.64086
)
;
    }
    lowerWall
    {
        type            calculated;
        value           nonuniform List<scalar> 
62
(
1545.53
1546.21
1547.26
1548.52
1549.98
1551.86
1554.22
1557.05
1560.29
1563.9
1567.8
1571.93
1576.16
1580.39
1584.5
1588.36
1591.82
1594.72
1596.94
1598.41
1598.47
1595.71
1582.21
1506.98
1340.05
1170.12
997.752
827.223
660.408
495.077
316.957
25.704
21.3292
14.4857
6.57585
3.4228
3.25089
3.08606
2.92638
2.76779
2.60891
2.4358
1.87108
3.51232
3.50522
3.49007
3.46774
3.43937
3.40643
3.37054
3.33324
3.29586
3.25945
3.22488
3.19288
3.16401
3.13867
3.11713
3.09965
3.08641
3.07754
3.07311
)
;
    }
    atmosphere
    {
        type            calculated;
        value           nonuniform List<scalar> 
46
(
-6.37426
-6.3886
-6.39168
-6.39913
-6.40855
-6.42001
-6.43357
-6.44931
-6.4674
-6.4881
-6.51172
-6.53854
-6.56871
-6.60229
-6.63951
-6.68121
-6.72905
-6.78549
-6.85424
-6.94221
-7.06035
-7.20803
-7.39099
-8.1638
-8.91767
-6.31745
-522.346
-617.116
-7.1578
-5.78756
-5.73936
-5.73051
-5.72904
-5.72904
-5.72904
-5.72904
-5.72904
-5.72904
-5.72904
-5.72904
-5.72904
-5.72904
-5.72904
-5.72904
-5.72904
-5.72904
)
;
    }
    defaultFaces
    {
        type            empty;
    }
}


// ************************************************************************* //
