/*--------------------------------*- C++ -*----------------------------------*\
| =========                 |                                                 |
| \\      /  F ield         | OpenFOAM: The Open Source CFD Toolbox           |
|  \\    /   O peration     | Version:  2206                                  |
|   \\  /    A nd           | Website:  www.openfoam.com                      |
|    \\/     M anipulation  |                                                 |
\*---------------------------------------------------------------------------*/
FoamFile
{
    version     2.0;
    format      ascii;
    arch        "LSB;label=32;scalar=64";
    class       surfaceScalarField;
    location    "0.025";
    object      alphaPhi0.water;
}
// * * * * * * * * * * * * * * * * * * * * * * * * * * * * * * * * * * * * * //

dimensions      [0 3 -1 0 0 0 0];

oriented        oriented;

internalField   nonuniform List<scalar> 
4432
(
4.83746e-07
-4.83746e-07
9.68689e-07
-4.84966e-07
1.44952e-06
-4.80847e-07
1.92564e-06
-4.76131e-07
2.39495e-06
-4.69332e-07
2.85488e-06
-4.59932e-07
3.30212e-06
-4.47249e-07
3.7325e-06
-4.30382e-07
4.14067e-06
-4.08165e-07
4.51978e-06
-3.79108e-07
4.86112e-06
-3.41334e-07
5.15365e-06
-2.92527e-07
5.38355e-06
-2.29904e-07
5.53377e-06
-1.50229e-07
5.58378e-06
-5.00257e-08
5.50922e-06
7.45309e-08
5.28238e-06
2.26833e-07
4.87819e-06
4.04198e-07
4.27509e-06
6.03123e-07
3.46231e-06
8.12788e-07
2.44856e-06
1.01372e-06
1.27095e-06
1.17758e-06
1.27094e-06
4.85308e-07
-9.69079e-07
9.71985e-07
-9.71672e-07
1.45472e-06
-9.63601e-07
1.93303e-06
-9.54464e-07
2.40499e-06
-9.413e-07
2.86814e-06
-9.23095e-07
3.31942e-06
-8.98523e-07
3.75486e-06
-8.65826e-07
4.16942e-06
-8.2272e-07
4.5566e-06
-7.66277e-07
4.90806e-06
-6.92793e-07
5.2132e-06
-5.9767e-07
5.45862e-06
-4.75343e-07
5.62776e-06
-3.194e-07
5.70109e-06
-1.2339e-07
5.65573e-06
1.19882e-07
5.45985e-06
4.22735e-07
5.08263e-06
7.81442e-07
4.49442e-06
1.19133e-06
3.67445e-06
1.63273e-06
2.62202e-06
2.06612e-06
1.37051e-06
2.42908e-06
2.64143e-06
4.87746e-07
-1.45684e-06
9.77081e-07
-1.46102e-06
1.46284e-06
-1.44937e-06
1.94479e-06
-1.43643e-06
2.42125e-06
-1.41777e-06
2.8901e-06
-1.39195e-06
3.34864e-06
-1.35706e-06
3.7934e-06
-1.31058e-06
4.21989e-06
-1.24921e-06
4.62233e-06
-1.1687e-06
4.99318e-06
-1.06364e-06
5.32272e-06
-9.27212e-07
5.59836e-06
-7.51001e-07
5.80389e-06
-5.24962e-07
5.9187e-06
-2.38204e-07
5.9213e-06
1.17292e-07
5.77165e-06
5.72409e-07
5.43557e-06
1.11753e-06
4.87167e-06
1.75521e-06
4.04245e-06
2.46193e-06
2.92846e-06
3.1801e-06
1.55056e-06
3.80695e-06
4.19198e-06
4.91184e-07
-1.94803e-06
9.84287e-07
-1.95412e-06
1.47434e-06
-1.93943e-06
1.96146e-06
-1.92355e-06
2.44433e-06
-1.90066e-06
2.92129e-06
-1.86892e-06
3.39021e-06
-1.82598e-06
3.84829e-06
-1.76866e-06
4.29193e-06
-1.69283e-06
4.71636e-06
-1.59311e-06
5.11533e-06
-1.4626e-06
5.48055e-06
-1.29244e-06
5.80098e-06
-1.07145e-06
6.06166e-06
-7.85657e-07
6.24166e-06
-4.18195e-07
6.32329e-06
3.56823e-08
6.25768e-06
6.3803e-07
6.0034e-06
1.37182e-06
5.49938e-06
2.25922e-06
4.67754e-06
3.28378e-06
3.4786e-06
4.37905e-06
1.88776e-06
5.39777e-06
6.07973e-06
4.95397e-07
-2.44343e-06
9.93114e-07
-2.45183e-06
1.48844e-06
-2.43476e-06
1.98191e-06
-2.41704e-06
2.4727e-06
-2.39147e-06
2.95971e-06
-2.35594e-06
3.44149e-06
-2.30776e-06
3.91616e-06
-2.2433e-06
4.38119e-06
-2.15783e-06
4.83322e-06
-2.04513e-06
5.26773e-06
-1.89711e-06
5.67857e-06
-1.70329e-06
6.05722e-06
-1.45011e-06
6.39182e-06
-1.12026e-06
6.66598e-06
-6.92338e-07
6.84608e-06
-1.44409e-07
6.91244e-06
5.71663e-07
6.79466e-06
1.4896e-06
6.41046e-06
2.64344e-06
5.64655e-06
4.04772e-06
4.36999e-06
5.65561e-06
2.47636e-06
7.29139e-06
8.55612e-06
5.00092e-07
-2.94351e-06
1.00295e-06
-2.95468e-06
1.50416e-06
-2.93599e-06
2.00477e-06
-2.91767e-06
2.50448e-06
-2.89119e-06
3.00282e-06
-2.85429e-06
3.49919e-06
-2.80411e-06
3.99269e-06
-2.73678e-06
4.48212e-06
-2.64724e-06
4.96581e-06
-2.52881e-06
5.4414e-06
-2.37271e-06
5.90551e-06
-2.1674e-06
6.35307e-06
-1.89766e-06
6.7762e-06
-1.54338e-06
7.16192e-06
-1.07806e-06
7.48584e-06
-4.68335e-07
7.73285e-06
3.24643e-07
7.82619e-06
1.39628e-06
7.66167e-06
2.80799e-06
7.06998e-06
4.6394e-06
5.79674e-06
6.92886e-06
3.53574e-06
9.55241e-06
1.20919e-05
5.04932e-07
-3.44844e-06
1.01309e-06
-3.46285e-06
1.52042e-06
-3.44334e-06
2.02847e-06
-3.42574e-06
2.53751e-06
-3.40024e-06
3.04777e-06
-3.36455e-06
3.55951e-06
-3.31581e-06
4.07293e-06
-3.25018e-06
4.58827e-06
-3.16257e-06
5.10574e-06
-3.04628e-06
5.62549e-06
-2.89247e-06
6.14746e-06
-2.68938e-06
6.67103e-06
-2.42124e-06
7.19429e-06
-2.06666e-06
7.71259e-06
-1.59638e-06
8.21509e-06
-9.7084e-07
8.68062e-06
-1.40873e-07
9.09222e-06
9.84703e-07
9.30036e-06
2.59986e-06
9.10632e-06
4.83344e-06
8.10375e-06
7.93144e-06
5.6541e-06
1.20021e-05
1.77459e-05
5.09626e-07
-3.95807e-06
1.02292e-06
-3.97616e-06
1.53623e-06
-3.95667e-06
2.05161e-06
-3.94114e-06
2.56989e-06
-3.91852e-06
3.09202e-06
-3.88666e-06
3.61909e-06
-3.84287e-06
4.15247e-06
-3.78354e-06
4.69383e-06
-3.70392e-06
5.24535e-06
-3.59779e-06
5.80981e-06
-3.45693e-06
6.39079e-06
-3.27037e-06
6.99282e-06
-3.02329e-06
7.6212e-06
-2.69506e-06
8.28096e-06
-2.25617e-06
8.97343e-06
-1.66331e-06
9.69199e-06
-8.59425e-07
1.05429e-05
1.33833e-07
1.13105e-05
1.83224e-06
1.18675e-05
4.27643e-06
1.16088e-05
8.19014e-06
9.26738e-06
1.43435e-05
2.70133e-05
1.04012e-23
-4.91958e-23
3.55299e-25
-5.42595e-25
1.59325e-27
-6.63869e-26
4.4229e-30
-9.05173e-29
9.32068e-33
2.04476e-32
1.18407e-34
3.06604e-34
1.25719e-36
4.78022e-36
1.1964e-38
5.90574e-38
1.0033e-40
6.20728e-40
7.34028e-43
5.64233e-42
4.62631e-45
4.47516e-44
2.47126e-47
3.08448e-46
1.09493e-49
1.81338e-48
3.89707e-52
9.01514e-51
1.06211e-54
3.71832e-53
2.04903e-57
1.21576e-55
3.35352e-60
2.96631e-58
9.52704e-61
4.84647e-61
7.89493e-64
1.56387e-21
-7.83916e-21
5.17846e-23
-1.35233e-22
2.56523e-25
-1.03418e-23
6.75895e-28
-1.4301e-26
1.59139e-30
1.32714e-29
2.08624e-32
2.08248e-31
2.18611e-34
3.25976e-33
2.0996e-36
4.05509e-35
1.77691e-38
4.29483e-37
1.312e-40
3.94701e-39
8.34786e-43
3.1597e-41
4.50283e-45
2.1929e-43
2.01457e-47
1.30249e-45
7.24191e-50
6.5474e-48
1.99435e-52
2.72689e-50
3.89068e-55
8.99749e-53
4.65318e-58
2.2166e-55
1.25752e-60
3.68186e-58
3.06444e-61
1.19281e-19
-7.24258e-19
3.728e-21
-1.42303e-20
2.112e-23
-7.93986e-22
5.42775e-26
-1.08557e-24
1.39322e-28
1.78471e-27
1.76554e-30
2.74408e-29
1.88594e-32
4.2396e-31
1.80532e-34
5.24408e-33
1.52302e-36
5.53641e-35
1.1211e-38
5.07089e-37
7.11132e-41
4.03861e-39
3.82398e-43
2.79175e-41
1.70576e-45
1.65701e-43
6.1155e-48
8.30851e-46
1.67949e-50
3.44103e-48
3.69128e-53
1.1328e-50
5.37226e-56
2.79018e-53
1.30527e-58
4.62826e-56
3.88501e-59
5.92912e-18
-2.07098e-17
1.74005e-19
-9.17762e-19
1.148e-21
-3.87733e-20
2.74869e-24
-4.92222e-23
8.6677e-27
1.44369e-25
1.08068e-28
2.29016e-27
1.15494e-30
3.48736e-29
1.10195e-32
4.28524e-31
9.26509e-35
4.50034e-33
6.79636e-37
4.10553e-35
4.29632e-39
3.25882e-37
2.30266e-41
2.24422e-39
1.04246e-43
1.32777e-41
4.01428e-46
6.63739e-44
1.21782e-48
2.73952e-46
2.7319e-51
8.9931e-49
4.07591e-54
2.20957e-51
1.08047e-56
3.68148e-54
3.08018e-57
2.24788e-16
-7.853e-16
5.71226e-18
-1.71335e-17
4.26757e-20
-1.28844e-18
8.19799e-23
-1.18836e-21
4.33455e-25
6.91272e-24
5.31198e-27
1.43986e-25
5.65716e-29
2.15433e-27
5.37586e-31
2.62646e-29
4.50122e-33
2.74185e-31
3.2878e-35
2.48884e-33
2.15995e-37
1.96768e-35
1.21471e-39
1.34956e-37
5.73956e-42
7.949e-40
2.22289e-44
3.95793e-42
6.7923e-47
1.62685e-44
1.53897e-49
5.31733e-47
2.34543e-52
1.30108e-49
6.40594e-55
2.17838e-52
1.81178e-55
7.20699e-15
-2.18734e-14
1.36578e-16
2.83302e-15
1.13464e-18
-3.03983e-17
1.32918e-21
-5.56e-21
1.74732e-23
3.29688e-22
2.08988e-25
6.98078e-24
2.22092e-27
1.02424e-25
2.1445e-29
1.23735e-27
1.86384e-31
1.28378e-29
1.41423e-33
1.15903e-31
9.29e-36
9.11808e-34
5.22123e-38
6.2204e-36
2.46882e-40
3.64334e-38
9.58115e-43
1.80471e-40
2.93661e-45
7.37881e-43
6.68563e-48
2.399e-45
1.03567e-50
5.83897e-48
2.97626e-53
9.74514e-51
8.11736e-54
1.57439e-13
-5.36665e-12
2.37554e-15
-1.36303e-13
2.64604e-17
-5.38684e-16
3.78524e-20
1.69524e-19
5.45899e-22
1.31306e-20
6.44097e-24
2.58279e-22
7.21559e-26
3.7137e-24
7.15066e-28
4.44394e-26
6.20054e-30
4.57935e-28
4.69108e-32
4.10691e-30
3.07378e-34
3.20988e-32
1.72385e-36
2.176e-34
8.13978e-39
1.26656e-36
3.15608e-41
6.23429e-39
9.67443e-44
2.53282e-41
2.20547e-46
8.18313e-44
3.43435e-49
1.97921e-46
1.08523e-51
3.28252e-49
2.7455e-52
5.14181e-12
-1.47245e-10
-1.60383e-14
-1.85515e-12
4.71094e-17
-1.92189e-14
9.90727e-19
1.04886e-17
1.56056e-20
4.54468e-19
1.9336e-22
8.43028e-21
2.17927e-24
1.18923e-22
2.15085e-26
1.4077e-24
1.8566e-28
1.43867e-26
1.39776e-30
1.2804e-28
9.11375e-33
9.93052e-31
5.08712e-35
6.68102e-33
2.39078e-37
3.85965e-35
9.22857e-40
1.88469e-37
2.81803e-42
7.59541e-40
6.40289e-45
2.43464e-42
9.94397e-48
5.84129e-45
3.15891e-50
9.60777e-48
8.01458e-51
1.09734e-06
-5.05541e-06
2.20372e-06
-5.08254e-06
3.31281e-06
-5.06577e-06
4.43046e-06
-5.05879e-06
5.56022e-06
-5.04828e-06
6.7062e-06
-5.03264e-06
7.87342e-06
-5.01008e-06
9.06812e-06
-4.97823e-06
1.02983e-05
-4.93413e-06
1.15746e-05
-4.87406e-06
1.29111e-05
-4.7934e-06
1.43272e-05
-4.6865e-06
1.58504e-05
-4.54651e-06
1.75207e-05
-4.36538e-06
1.93987e-05
-4.13411e-06
2.15794e-05
-3.84401e-06
2.421e-05
-3.49006e-06
2.74189e-05
-3.07505e-06
3.18298e-05
-2.57865e-06
3.81328e-05
-2.02658e-06
4.77195e-05
-1.39658e-06
6.26064e-05
-5.43342e-07
1.03122e-06
8.85885e-05
1.105e-06
-6.16042e-06
2.21996e-06
-6.1975e-06
3.34037e-06
-6.18617e-06
4.47334e-06
-6.19176e-06
5.62401e-06
-6.19894e-06
6.79832e-06
-6.20695e-06
8.00344e-06
-6.21519e-06
9.24819e-06
-6.22296e-06
1.05436e-05
-6.22957e-06
1.1904e-05
-6.23438e-06
1.33476e-05
-6.23701e-06
1.48987e-05
-6.23763e-06
1.65896e-05
-6.23746e-06
1.84638e-05
-6.23954e-06
2.05797e-05
-6.25006e-06
2.30161e-05
-6.28033e-06
2.58759e-05
-6.34983e-06
2.92913e-05
-6.4905e-06
3.34646e-05
-6.75188e-06
3.86573e-05
-7.21931e-06
4.53137e-05
-8.05295e-06
5.41707e-05
-9.40034e-06
-1.23105e-05
6.75124e-05
1.09679e-06
-7.25721e-06
2.20334e-06
-7.30404e-06
3.31674e-06
-7.29957e-06
4.44428e-06
-7.3193e-06
5.59159e-06
-7.34624e-06
6.76503e-06
-7.38038e-06
7.97206e-06
-7.4222e-06
9.22154e-06
-7.47243e-06
1.05242e-05
-7.5322e-06
1.18931e-05
-7.60324e-06
1.33443e-05
-7.68818e-06
1.48975e-05
-7.79091e-06
1.65773e-05
-7.9172e-06
1.84133e-05
-8.07549e-06
2.04412e-05
-8.27802e-06
2.27032e-05
-8.54233e-06
2.52468e-05
-8.89336e-06
2.81223e-05
-9.36609e-06
3.13796e-05
-1.00092e-05
3.50498e-05
-1.08895e-05
3.90997e-05
-1.21028e-05
4.341e-05
-1.37106e-05
-1.61937e-05
4.72931e-05
1.07048e-06
-8.32768e-06
2.14949e-06
-8.38303e-06
3.23546e-06
-8.38555e-06
4.33489e-06
-8.41874e-06
5.45291e-06
-8.46426e-06
6.59516e-06
-8.52261e-06
7.76797e-06
-8.59498e-06
8.97853e-06
-8.68295e-06
1.0235e-05
-8.78869e-06
1.15469e-05
-8.9151e-06
1.29249e-05
-9.06609e-06
1.43809e-05
-9.24688e-06
1.59281e-05
-9.4644e-06
1.75803e-05
-9.72774e-06
1.93511e-05
-1.00488e-05
2.12517e-05
-1.04429e-05
2.32879e-05
-1.09295e-05
2.54545e-05
-1.15327e-05
2.77268e-05
-1.22815e-05
3.00461e-05
-1.32088e-05
3.22949e-05
-1.43516e-05
3.42951e-05
-1.57108e-05
-1.74983e-05
3.55997e-05
1.02668e-06
-9.35436e-06
2.05997e-06
-9.41628e-06
3.09941e-06
-9.42498e-06
4.15003e-06
-9.46936e-06
5.21587e-06
-9.53011e-06
6.30121e-06
-9.60795e-06
7.41058e-06
-9.70436e-06
8.54884e-06
-9.8212e-06
9.72108e-06
-9.96093e-06
1.09326e-05
-1.01266e-05
1.21888e-05
-1.03222e-05
1.34946e-05
-1.05527e-05
1.48542e-05
-1.0824e-05
1.62701e-05
-1.11436e-05
1.77418e-05
-1.15205e-05
1.92642e-05
-1.19653e-05
2.08245e-05
-1.24899e-05
2.23994e-05
-1.31076e-05
2.39496e-05
-1.38317e-05
2.54153e-05
-1.46744e-05
2.67088e-05
-1.56451e-05
2.77236e-05
-1.67256e-05
-1.80404e-05
2.82656e-05
9.68137e-07
-1.03225e-05
1.9406e-06
-1.03887e-05
2.91794e-06
-1.04023e-05
3.90344e-06
-1.04549e-05
4.89985e-06
-1.05265e-05
5.9099e-06
-1.0618e-05
6.9363e-06
-1.07307e-05
7.98164e-06
-1.08665e-05
9.04829e-06
-1.10276e-05
1.01382e-05
-1.12166e-05
1.12528e-05
-1.14368e-05
1.23922e-05
-1.1692e-05
1.35552e-05
-1.19869e-05
1.47381e-05
-1.23266e-05
1.59344e-05
-1.27168e-05
1.71329e-05
-1.31638e-05
1.8317e-05
-1.3674e-05
1.94626e-05
-1.42532e-05
2.05372e-05
-1.49064e-05
2.14986e-05
-1.56359e-05
2.22951e-05
-1.64416e-05
2.28739e-05
-1.73045e-05
-1.83173e-05
2.31508e-05
8.98644e-07
-1.12211e-05
1.79935e-06
-1.12894e-05
2.70356e-06
-1.13065e-05
3.61285e-06
-1.13642e-05
4.52873e-06
-1.14424e-05
5.4526e-06
-1.15419e-05
6.38561e-06
-1.16637e-05
7.32857e-06
-1.18095e-05
8.28188e-06
-1.19809e-05
9.24524e-06
-1.21799e-05
1.02175e-05
-1.2409e-05
1.11963e-05
-1.26708e-05
1.21778e-05
-1.29684e-05
1.3156e-05
-1.33048e-05
1.41226e-05
-1.36834e-05
1.50662e-05
-1.41074e-05
1.59718e-05
-1.45795e-05
1.68203e-05
-1.51017e-05
1.75888e-05
-1.56749e-05
1.82507e-05
-1.62978e-05
1.87768e-05
-1.69676e-05
1.91414e-05
-1.7669e-05
-1.84788e-05
1.93028e-05
8.22153e-07
-1.20433e-05
1.64437e-06
-1.21117e-05
2.46886e-06
-1.2131e-05
3.29574e-06
-1.2191e-05
4.12554e-06
-1.22722e-05
4.95858e-06
-1.23749e-05
5.79489e-06
-1.25001e-05
6.6341e-06
-1.26487e-05
7.47532e-06
-1.28221e-05
8.317e-06
-1.30216e-05
9.15673e-06
-1.32487e-05
9.99104e-06
-1.35051e-05
1.08152e-05
-1.37925e-05
1.1623e-05
-1.41127e-05
1.24066e-05
-1.4467e-05
1.31561e-05
-1.48569e-05
1.38598e-05
-1.52832e-05
1.45039e-05
-1.57458e-05
1.50729e-05
-1.62439e-05
1.55503e-05
-1.67753e-05
1.59194e-05
-1.73368e-05
1.61671e-05
-1.79167e-05
-1.85818e-05
1.627e-05
7.42158e-07
-1.27854e-05
1.48279e-06
-1.28523e-05
2.22474e-06
-1.2873e-05
2.96701e-06
-1.29333e-05
3.70941e-06
-1.30146e-05
4.45156e-06
-1.3117e-05
5.19276e-06
-1.32413e-05
5.93193e-06
-1.33879e-05
6.66753e-06
-1.35577e-05
7.39739e-06
-1.37514e-05
8.11865e-06
-1.39699e-05
8.82762e-06
-1.42141e-05
9.51968e-06
-1.44846e-05
1.01892e-05
-1.47822e-05
1.08296e-05
-1.51073e-05
1.14327e-05
-1.54601e-05
1.19899e-05
-1.58404e-05
1.24913e-05
-1.62472e-05
1.29266e-05
-1.66792e-05
1.32853e-05
-1.7134e-05
1.35576e-05
-1.7609e-05
1.3736e-05
-1.80952e-05
-1.86513e-05
1.38056e-05
6.61362e-07
-1.34468e-05
1.32002e-06
-1.3511e-05
1.97943e-06
-1.35324e-05
2.63778e-06
-1.35917e-05
3.29446e-06
-1.36713e-05
3.94864e-06
-1.37713e-05
4.59924e-06
-1.38919e-05
5.24485e-06
-1.40335e-05
5.88366e-06
-1.41965e-05
6.51336e-06
-1.43811e-05
7.13111e-06
-1.45876e-05
7.7334e-06
-1.48164e-05
8.31614e-06
-1.50674e-05
8.87457e-06
-1.53407e-05
9.40321e-06
-1.56359e-05
9.89591e-06
-1.59528e-05
1.03459e-05
-1.62903e-05
1.07462e-05
-1.66475e-05
1.10895e-05
-1.70225e-05
1.13689e-05
-1.74135e-05
1.1578e-05
-1.78181e-05
1.17125e-05
-1.82297e-05
-1.87002e-05
1.17613e-05
5.81713e-07
-1.40285e-05
1.15992e-06
-1.40892e-05
1.73862e-06
-1.41111e-05
2.31554e-06
-1.41686e-05
2.8898e-06
-1.42456e-05
3.46043e-06
-1.43419e-05
4.0262e-06
-1.44577e-05
4.58564e-06
-1.4593e-05
5.13696e-06
-1.47478e-05
5.67801e-06
-1.49221e-05
6.20618e-06
-1.51157e-05
6.71844e-06
-1.53286e-05
7.21128e-06
-1.55602e-05
7.68076e-06
-1.58102e-05
8.12248e-06
-1.60777e-05
8.53158e-06
-1.63619e-05
8.90287e-06
-1.66616e-05
9.23101e-06
-1.69756e-05
9.51059e-06
-1.73021e-05
9.73636e-06
-1.76393e-05
9.90358e-06
-1.79854e-05
1.00094e-05
-1.83356e-05
-1.87356e-05
1.00447e-05
5.04376e-07
-1.45329e-05
1.00469e-06
-1.45896e-05
1.50552e-06
-1.4612e-05
2.0043e-06
-1.46674e-05
2.50015e-06
-1.47414e-05
2.9921e-06
-1.48339e-05
3.47901e-06
-1.49446e-05
3.95955e-06
-1.50735e-05
4.43216e-06
-1.52204e-05
4.89496e-06
-1.53849e-05
5.3458e-06
-1.55666e-05
5.78215e-06
-1.5765e-05
6.20119e-06
-1.59793e-05
6.59972e-06
-1.62086e-05
6.97416e-06
-1.6452e-05
7.32052e-06
-1.67082e-05
7.63454e-06
-1.69757e-05
7.91184e-06
-1.72529e-05
8.14797e-06
-1.75382e-05
8.33849e-06
-1.78298e-05
8.47915e-06
-1.81261e-05
8.56717e-06
-1.84236e-05
-1.87621e-05
8.59375e-06
4.29537e-07
-1.49624e-05
8.54789e-07
-1.50148e-05
1.28076e-06
-1.50379e-05
1.70482e-06
-1.50915e-05
2.12623e-06
-1.51628e-05
2.5442e-06
-1.52518e-05
2.95778e-06
-1.53582e-05
3.36591e-06
-1.54816e-05
3.76733e-06
-1.56218e-05
4.16063e-06
-1.57782e-05
4.54419e-06
-1.59502e-05
4.91612e-06
-1.61369e-05
5.27432e-06
-1.63375e-05
5.61637e-06
-1.65507e-05
5.93945e-06
-1.67751e-05
6.2403e-06
-1.7009e-05
6.51521e-06
-1.72506e-05
6.76006e-06
-1.74978e-05
6.97038e-06
-1.77485e-05
7.14146e-06
-1.80009e-05
7.26855e-06
-1.82532e-05
7.34778e-06
-1.85028e-05
-1.87828e-05
7.36848e-06
3.57112e-07
-1.53196e-05
7.09841e-07
-1.53675e-05
1.06369e-06
-1.53918e-05
1.41612e-06
-1.54439e-05
1.7665e-06
-1.55132e-05
2.11424e-06
-1.55996e-05
2.45874e-06
-1.57027e-05
2.79933e-06
-1.58222e-05
3.13526e-06
-1.59577e-05
3.46567e-06
-1.61086e-05
3.78961e-06
-1.62741e-05
4.10593e-06
-1.64532e-05
4.41333e-06
-1.66449e-05
4.71025e-06
-1.68476e-05
4.99482e-06
-1.70597e-05
5.26466e-06
-1.72788e-05
5.51677e-06
-1.75027e-05
5.74734e-06
-1.77284e-05
5.95146e-06
-1.79526e-05
6.12287e-06
-1.81723e-05
6.25393e-06
-1.83842e-05
6.33682e-06
-1.85857e-05
-1.88004e-05
6.35439e-06
2.86904e-07
-1.56065e-05
5.69128e-07
-1.56498e-05
8.52835e-07
-1.56754e-05
1.13562e-06
-1.57267e-05
1.41715e-06
-1.57948e-05
1.69719e-06
-1.58797e-05
1.97543e-06
-1.5981e-05
2.25158e-06
-1.60984e-05
2.52543e-06
-1.62316e-05
2.7968e-06
-1.63799e-05
3.06556e-06
-1.65428e-05
3.33156e-06
-1.67192e-05
3.59462e-06
-1.69079e-05
3.85442e-06
-1.71074e-05
4.11043e-06
-1.73156e-05
4.36164e-06
-1.753e-05
4.60629e-06
-1.77473e-05
4.84158e-06
-1.79637e-05
5.06317e-06
-1.81742e-05
5.26447e-06
-1.83736e-05
5.43509e-06
-1.85548e-05
5.55826e-06
-1.87089e-05
-1.88212e-05
5.57915e-06
2.17493e-07
-1.58238e-05
4.30573e-07
-1.58627e-05
6.45726e-07
-1.58904e-05
8.6043e-07
-1.59412e-05
1.07462e-06
-1.60088e-05
1.28826e-06
-1.60931e-05
1.50139e-06
-1.6194e-05
1.71416e-06
-1.6311e-05
1.92688e-06
-1.64441e-05
2.14007e-06
-1.6593e-05
2.35444e-06
-1.6757e-05
2.57101e-06
-1.69356e-05
2.79113e-06
-1.71278e-05
3.01645e-06
-1.73325e-05
3.24885e-06
-1.75478e-05
3.4901e-06
-1.7771e-05
3.74131e-06
-1.79982e-05
4.00195e-06
-1.8224e-05
4.2689e-06
-1.84408e-05
4.53561e-06
-1.864e-05
4.79498e-06
-1.88138e-05
5.0552e-06
-1.89686e-05
-1.88827e-05
5.1175e-06
1.51118e-07
-1.59723e-05
2.96901e-07
-1.60058e-05
4.45041e-07
-1.60359e-05
5.93115e-07
-1.60866e-05
7.41222e-07
-1.61542e-05
8.89514e-07
-1.62386e-05
1.03823e-06
-1.63398e-05
1.1878e-06
-1.64576e-05
1.33888e-06
-1.65922e-05
1.49248e-06
-1.67434e-05
1.65002e-06
-1.69113e-05
1.81354e-06
-1.70957e-05
1.98597e-06
-1.72967e-05
2.17142e-06
-1.75142e-05
2.37554e-06
-1.77479e-05
2.60587e-06
-1.79971e-05
2.87201e-06
-1.826e-05
3.18504e-06
-1.85324e-05
3.55461e-06
-1.88054e-05
3.97832e-06
-1.90583e-05
4.407e-06
-1.92364e-05
4.70809e-06
-1.92625e-05
-1.78155e-05
3.65294e-06
8.75032e-08
-1.60178e-05
1.70055e-07
-1.60461e-05
2.5463e-07
-1.6078e-05
3.39445e-07
-1.61286e-05
4.24634e-07
-1.6196e-05
5.10403e-07
-1.62803e-05
5.97039e-07
-1.63816e-05
6.84959e-07
-1.64997e-05
7.74769e-07
-1.66351e-05
8.6735e-07
-1.67878e-05
9.63978e-07
-1.69583e-05
1.06653e-06
-1.71471e-05
1.17786e-06
-1.73551e-05
1.30233e-06
-1.75837e-05
1.44675e-06
-1.78351e-05
1.62193e-06
-1.81126e-05
1.84548e-06
-1.8421e-05
2.14665e-06
-1.87679e-05
2.58011e-06
-1.91698e-05
3.24857e-06
-1.96542e-05
4.38136e-06
-2.02869e-05
6.27471e-06
-2.10598e-05
-1.94212e-05
8.50879e-06
-8.77995e-09
-1.01292e-45
-2.2992e-08
-9.0311e-43
-3.29396e-08
-1.78327e-40
-4.4109e-08
-2.36704e-38
-5.57056e-08
-2.36435e-36
-6.7782e-08
-1.88844e-34
-8.04202e-08
-1.25357e-32
-9.37111e-08
-7.09205e-31
-1.07733e-07
-3.48435e-29
-1.22557e-07
-1.50805e-27
-1.38247e-07
-5.81515e-26
-1.54842e-07
-2.0163e-24
-1.72364e-07
-6.33571e-23
-1.90807e-07
-1.81691e-21
-2.10073e-07
-4.7869e-20
-2.29927e-07
-1.16643e-18
-2.50045e-07
-2.64756e-17
-2.85659e-07
-5.64172e-16
-3.7052e-07
-1.13667e-14
-6.6158e-07
-2.19598e-13
3.88022e-07
-4.29795e-12
3.15064e-06
-8.01942e-11
-1.51345e-09
7.38031e-06
-2.11612e-45
-2.24622e-46
-8.15138e-43
-9.21951e-44
-1.61547e-40
-1.79946e-41
-2.15473e-38
-2.36318e-39
-2.16305e-36
-2.33232e-37
-1.73589e-34
-1.8447e-35
-1.15698e-32
-1.22083e-33
-6.57259e-31
-6.88327e-32
-3.24265e-29
-3.36886e-30
-1.40937e-27
-1.45181e-28
-5.45768e-26
-5.57109e-27
-1.90031e-24
-1.92093e-25
-5.99577e-23
-5.99681e-24
-1.72616e-21
-1.70625e-22
-4.5642e-20
-4.45155e-21
-1.11566e-18
-1.07113e-19
-2.53859e-17
-2.39056e-18
-5.42039e-16
-4.95658e-17
-1.09827e-14
-9.11815e-16
-2.14147e-13
-1.46961e-14
-4.17912e-12
-2.64586e-13
-7.7333e-11
-5.58435e-12
-1.06921e-10
-1.46776e-09
-4.22161e-46
-2.72415e-47
-7.8951e-44
-1.50699e-44
-1.57e-41
-2.81265e-42
-2.11324e-39
-3.50834e-40
-2.13662e-37
-3.27955e-38
-1.73029e-35
-2.44522e-36
-1.17167e-33
-1.51306e-34
-6.7513e-32
-7.9736e-33
-3.37311e-30
-3.6448e-31
-1.48238e-28
-1.46538e-29
-5.79511e-27
-5.23709e-28
-2.03373e-25
-1.67761e-26
-6.45571e-24
-4.84826e-25
-1.8658e-22
-1.27051e-23
-4.93526e-21
-3.02826e-22
-1.202e-19
-6.58415e-21
-2.711e-18
-1.30871e-19
-5.68219e-17
-2.37387e-18
-1.06126e-15
-3.9069e-17
-1.73471e-14
-6.14038e-16
-2.96279e-13
-1.07315e-14
-5.93804e-12
-1.97611e-13
-1.67854e-12
-1.1568e-10
-3.04505e-47
-4.4797e-49
-1.50758e-44
-2.49322e-46
-2.86565e-42
-4.49096e-44
-3.63883e-40
-5.39127e-42
-3.4622e-38
-4.84724e-40
-2.62705e-36
-3.47587e-38
-1.63902e-34
-2.08192e-36
-8.64671e-33
-1.06693e-34
-3.95637e-31
-4.74134e-33
-1.59226e-29
-1.85262e-31
-5.69655e-28
-6.43192e-30
-1.82679e-26
-2.00002e-28
-5.2853e-25
-5.60429e-27
-1.38664e-23
-1.4217e-25
-3.30922e-22
-3.27372e-24
-7.20626e-21
-6.85626e-23
-1.43459e-19
-1.30391e-21
-2.69926e-18
-2.19194e-20
-4.526e-17
-3.43777e-19
-6.76905e-16
-5.96976e-18
-1.148e-14
-2.06615e-16
-2.06678e-13
-5.4477e-15
-2.76567e-14
-2.19821e-12
-4.60041e-49
-1.58441e-51
-2.52555e-46
-8.73566e-49
-4.5922e-44
-1.56125e-46
-5.52941e-42
-1.86495e-44
-4.98616e-40
-1.66753e-42
-3.58597e-38
-1.18886e-40
-2.1536e-36
-7.079e-39
-1.10651e-34
-3.60707e-37
-4.93054e-33
-1.59424e-35
-1.93186e-31
-6.19677e-34
-6.72607e-30
-2.14097e-32
-2.09762e-28
-6.62867e-31
-5.89576e-27
-1.85068e-29
-1.50044e-25
-4.68241e-28
-3.46726e-24
-1.07475e-26
-7.44471e-23
-2.21074e-25
-1.49481e-21
-4.07003e-24
-2.67073e-20
-6.6616e-23
-4.4162e-19
-9.5777e-22
-7.15322e-18
-1.59615e-20
-2.13781e-16
-3.07899e-19
-5.64085e-15
-1.14481e-17
-1.31395e-16
-3.31449e-14
-1.59271e-51
-1.01823e-54
-8.77128e-49
-5.672e-52
-1.56051e-46
-1.02014e-49
-1.86154e-44
-1.22971e-47
-1.66272e-42
-1.10964e-45
-1.18449e-40
-7.98687e-44
-7.04821e-39
-4.80329e-42
-3.58841e-37
-2.47321e-40
-1.58467e-35
-1.10562e-38
-6.15507e-34
-4.35182e-37
-2.12524e-32
-1.52455e-35
-6.57674e-31
-4.79375e-34
-1.83556e-29
-1.36199e-32
-4.64364e-28
-3.51259e-31
-1.10086e-26
-8.07866e-30
-2.40442e-25
-1.65811e-28
-4.74006e-24
-3.08292e-27
-8.41467e-23
-5.17877e-26
-1.33568e-21
-7.7564e-25
-2.59937e-20
-1.09525e-23
-3.74999e-19
-2.09923e-22
-1.07902e-17
-3.57429e-21
-3.79987e-20
-1.34032e-16
-9.18532e-55
-1.22404e-59
-3.02384e-52
-4.1309e-57
-5.6359e-50
-7.90763e-55
-7.01077e-48
-1.01054e-52
-6.5146e-46
-9.65155e-51
-4.82091e-44
-7.34606e-49
-2.9559e-42
-4.63501e-47
-1.5428e-40
-2.49071e-45
-6.98955e-39
-1.1628e-43
-2.78814e-37
-4.7858e-42
-9.90005e-36
-1.75604e-40
-3.15586e-34
-5.7951e-39
-9.09491e-33
-1.7324e-37
-2.42348e-31
-4.70991e-36
-6.29044e-30
-1.16616e-34
-1.49609e-28
-2.65715e-33
-3.28906e-27
-5.61963e-32
-6.65519e-26
-1.0977e-30
-1.23627e-24
-1.98421e-29
-2.12969e-23
-3.32463e-28
-7.26516e-22
-5.18135e-27
-7.61241e-21
-8.41031e-26
-8.82684e-25
-1.90757e-19
-1.08055e-59
-6.52718e-63
-4.14868e-57
-2.61785e-60
-7.99037e-55
-5.26226e-58
-1.02308e-52
-7.03119e-56
-9.79232e-51
-7.02502e-54
-7.47122e-49
-5.59817e-52
-4.72548e-47
-3.70204e-50
-2.54557e-45
-2.0876e-48
-1.19172e-43
-1.02442e-46
-4.92003e-42
-4.44017e-45
-1.81151e-40
-1.71969e-43
-6.00111e-39
-6.00896e-42
-1.80166e-37
-1.90529e-40
-5.19405e-36
-5.51818e-39
-1.42139e-34
-1.46676e-37
-3.59057e-33
-3.6151e-36
-8.36962e-32
-8.2554e-35
-1.80612e-30
-1.7515e-33
-3.61949e-29
-3.46234e-32
-6.68717e-28
-6.39325e-31
-2.43271e-26
-1.10611e-29
-2.94136e-25
-2.00512e-28
-2.21844e-27
-1.23272e-24
-6.45311e-63
-1.52458e-66
-2.62661e-60
-6.57827e-64
-5.28771e-58
-1.4031e-61
-7.07428e-56
-1.99002e-59
-7.08266e-54
-2.11297e-57
-5.65736e-52
-1.79021e-55
-3.75266e-50
-1.26038e-53
-2.12426e-48
-7.58164e-52
-1.04654e-46
-3.97515e-50
-4.5546e-45
-1.84429e-48
-1.77147e-43
-7.6621e-47
-6.21693e-42
-2.87955e-45
-1.98024e-40
-9.83019e-44
-6.25891e-39
-3.07636e-42
-1.83579e-37
-8.88955e-41
-4.98349e-36
-2.38777e-39
-1.254e-34
-5.96765e-38
-2.93782e-33
-1.39305e-36
-6.43314e-32
-3.04779e-35
-1.3088e-30
-6.26995e-34
-5.33146e-29
-1.21721e-32
-7.24035e-28
-2.4948e-31
-3.93664e-30
-3.03263e-27
-1.52051e-66
-7.95894e-71
-6.58459e-64
-3.69812e-68
-1.40701e-61
-8.47613e-66
-2.00096e-59
-1.29315e-63
-2.13037e-57
-1.47784e-61
-1.80992e-55
-1.34908e-59
-1.2778e-53
-1.02434e-57
-7.7081e-52
-6.65255e-56
-4.05303e-50
-3.77136e-54
-1.88592e-48
-1.8953e-52
-7.85838e-47
-8.54691e-51
-2.96226e-45
-3.49468e-49
-1.0166e-43
-1.29907e-47
-3.50103e-42
-4.44099e-46
-1.1163e-40
-1.41208e-44
-3.29799e-39
-4.17711e-43
-9.07209e-38
-1.15444e-41
-2.33485e-36
-2.99351e-40
-5.64726e-35
-7.31114e-39
-1.27739e-33
-1.68799e-37
-5.8366e-32
-3.69873e-36
-8.95945e-31
-8.57469e-35
-1.72721e-33
-4.8721e-30
-7.95401e-71
-5.49385e-80
-3.70392e-68
-2.77916e-77
-8.50813e-66
-6.93966e-75
-1.30089e-63
-1.15307e-72
-1.48995e-61
-1.43487e-70
-1.36312e-59
-1.42743e-68
-1.03727e-57
-1.18241e-66
-6.7512e-56
-8.38627e-65
-3.83553e-54
-5.19805e-63
-1.93165e-52
-2.86033e-61
-8.72903e-51
-1.41489e-59
-3.57637e-49
-6.35882e-58
-1.3318e-47
-2.59976e-56
-5.01418e-46
-9.84281e-55
-1.75304e-44
-3.46872e-53
-5.69633e-43
-1.14033e-51
-1.72989e-41
-3.51449e-50
-4.9352e-40
-1.02001e-48
-1.32896e-38
-2.79942e-47
-3.36541e-37
-7.29352e-46
-1.73043e-35
-1.81113e-44
-3.01433e-34
-4.75175e-43
-1.17576e-41
-2.02745e-33
-5.50258e-80
-6.15862e-84
-2.78642e-77
-3.42354e-81
-6.97204e-75
-9.40197e-79
-1.16078e-72
-1.71933e-76
-1.44738e-70
-2.35629e-74
-1.44276e-68
-2.58212e-72
-1.19748e-66
-2.35761e-70
-8.50941e-65
-1.84498e-68
-5.28434e-63
-1.26324e-66
-2.91322e-61
-7.68816e-65
-1.44369e-59
-4.212e-63
-6.49978e-58
-2.10015e-61
-2.67817e-56
-9.59152e-60
-1.08622e-54
-4.05553e-58
-4.20187e-53
-1.59715e-56
-1.51506e-51
-5.88267e-55
-5.12131e-50
-2.03694e-53
-1.63162e-48
-6.66167e-52
-4.92376e-47
-2.06665e-50
-1.40323e-45
-6.10635e-49
-8.1354e-44
-1.72538e-47
-1.61989e-42
-5.09337e-46
-1.39652e-44
-1.37246e-41
-6.16026e-84
-3.03793e-88
-3.43105e-81
-1.88113e-85
-9.4413e-79
-5.74618e-83
-1.72995e-76
-1.16869e-80
-2.37563e-74
-1.78327e-78
-2.60862e-72
-2.17689e-76
-2.38675e-70
-2.21494e-74
-1.87172e-68
-1.93292e-72
-1.28431e-66
-1.47738e-70
-7.83366e-65
-1.00499e-68
-4.30144e-63
-6.16257e-67
-2.14899e-61
-3.44344e-65
-9.844e-60
-1.76639e-63
-4.31738e-58
-8.39357e-62
-1.86369e-56
-3.72378e-60
-7.51628e-55
-1.54871e-58
-2.84885e-53
-6.0688e-57
-1.02032e-51
-2.25146e-55
-3.47056e-50
-7.94282e-54
-1.1189e-48
-2.67563e-52
-7.31464e-47
-8.64119e-51
-1.66808e-45
-2.90509e-49
-8.87162e-48
-1.58093e-44
-3.03789e-88
-3.55397e-93
-1.88421e-85
-2.47437e-90
-5.76537e-83
-8.50887e-88
-1.17458e-80
-1.9479e-85
-1.7953e-78
-3.34399e-83
-2.19533e-76
-4.59562e-81
-2.23754e-74
-5.26804e-79
-1.95602e-72
-5.18241e-77
-1.49764e-70
-4.46824e-75
-1.02056e-68
-3.43181e-73
-6.26911e-67
-2.37861e-71
-3.50852e-65
-1.50387e-69
-1.80339e-63
-8.74486e-68
-8.5923e-62
-4.71605e-66
-4.13083e-60
-2.37497e-64
-1.87791e-58
-1.12459e-62
-8.03879e-57
-5.0262e-61
-3.25815e-55
-2.1307e-59
-1.2567e-53
-8.6057e-58
-4.60817e-52
-3.32538e-56
-3.39923e-50
-1.23434e-54
-8.96798e-49
-4.76155e-53
-1.57642e-51
-9.40185e-48
-3.55378e-93
-2.74975e-102
-2.4778e-90
-2.17896e-99
-8.53322e-88
-8.52791e-97
-1.95634e-85
-2.22406e-94
-3.3634e-83
-4.34739e-92
-4.62906e-81
-6.80372e-90
-5.31412e-79
-8.8871e-88
-5.23536e-77
-9.96907e-86
-4.52045e-75
-9.80777e-84
-3.47693e-73
-8.60188e-82
-2.41328e-71
-6.81383e-80
-1.52792e-69
-4.92833e-78
-8.89765e-68
-3.28223e-76
-4.80536e-66
-2.02958e-74
-2.47123e-64
-1.17293e-72
-1.27684e-62
-6.37574e-71
-6.22173e-61
-3.27985e-69
-2.87495e-59
-1.60258e-67
-1.2662e-57
-7.47139e-66
-5.31511e-56
-3.33743e-64
-4.43113e-54
-1.43403e-62
-1.36615e-52
-6.3873e-61
-2.2753e-59
-1.60078e-51
-2.75121e-102
-6.78685e-107
-2.18304e-99
-6.21723e-104
-8.55573e-97
-2.80861e-101
-2.23442e-94
-8.45096e-99
-4.37384e-92
-1.90791e-96
-6.85496e-90
-3.44888e-94
-8.96709e-88
-5.20319e-92
-1.00738e-85
-6.74353e-90
-9.92587e-84
-7.66992e-88
-8.71908e-82
-7.78229e-86
-6.91784e-80
-7.13709e-84
-5.01194e-78
-5.9812e-82
-3.34379e-76
-4.61941e-80
-2.07149e-74
-3.31572e-78
-1.19955e-72
-2.22619e-76
-6.68038e-71
-1.40682e-74
-3.73977e-69
-8.41405e-73
-1.98768e-67
-4.79123e-71
-1.00813e-65
-2.60594e-69
-4.8832e-64
-1.35953e-67
-4.60705e-62
-6.83001e-66
-1.68503e-60
-3.517e-64
-1.34961e-62
-2.25714e-59
-6.78771e-107
-7.10687e-112
-6.22504e-104
-7.63754e-109
-2.81543e-101
-4.05086e-106
-8.4814e-99
-1.42925e-103
-1.91704e-96
-3.78719e-101
-3.46952e-94
-8.0391e-99
-5.24066e-92
-1.42441e-96
-6.8004e-90
-2.16872e-94
-7.74419e-88
-2.89901e-92
-7.86759e-86
-3.45892e-90
-7.22466e-84
-3.7323e-88
-6.06183e-82
-3.68192e-86
-4.68878e-80
-3.35052e-84
-3.37025e-78
-2.8352e-82
-2.26614e-76
-2.24591e-80
-1.43431e-74
-1.67578e-78
-8.68959e-73
-1.18414e-76
-5.37191e-71
-7.9635e-75
-3.17173e-69
-5.12436e-73
-1.79279e-67
-3.16829e-71
-1.91598e-65
-1.88597e-69
-8.42335e-64
-1.1451e-67
-5.22264e-66
-1.4334e-62
-7.10707e-112
-2.29311e-117
-7.64496e-109
-2.95338e-114
-4.05874e-106
-1.87884e-111
-1.43343e-103
-7.95999e-109
-3.80193e-101
-2.53013e-106
-8.07826e-99
-6.44194e-104
-1.43275e-96
-1.36986e-101
-2.18357e-94
-2.50452e-99
-2.92173e-92
-4.0219e-97
-3.48948e-90
-5.76679e-95
-3.76903e-88
-7.48078e-93
-3.72168e-86
-8.87543e-91
-3.3904e-84
-9.71968e-89
-2.8719e-82
-9.90263e-87
-2.27738e-80
-9.4501e-85
-1.70112e-78
-8.49956e-83
-1.20342e-76
-7.24429e-81
-8.10579e-75
-5.87976e-79
-5.51267e-73
-4.56541e-77
-3.68953e-71
-3.40924e-75
-4.46573e-69
-2.4517e-73
-2.43187e-67
-1.79373e-71
-9.89713e-70
-5.44423e-66
-2.29311e-117
-1.05698e-123
-2.95568e-114
-1.68433e-120
-1.88181e-111
-1.32502e-117
-7.97887e-109
-6.95937e-115
-2.53814e-106
-2.73944e-112
-6.46745e-104
-8.63413e-110