/*--------------------------------*- C++ -*----------------------------------*\
| =========                 |                                                 |
| \\      /  F ield         | OpenFOAM: The Open Source CFD Toolbox           |
|  \\    /   O peration     | Version:  2206                                  |
|   \\  /    A nd           | Website:  www.openfoam.com                      |
|    \\/     M anipulation  |                                                 |
\*---------------------------------------------------------------------------*/
FoamFile
{
    version     2.0;
    format      ascii;
    arch        "LSB;label=32;scalar=64";
    class       volScalarField;
    location    "0.025";
    object      alpha.water;
}
// * * * * * * * * * * * * * * * * * * * * * * * * * * * * * * * * * * * * * //

dimensions      [0 0 0 0 0 0 0];

internalField   nonuniform List<scalar> 
2268
(
1
1
1
1
1
1
1
1
1
1
1
1
1
1
1
1
1
1
1
1
1
1
1
1
1
1
1
1
1
1
1
1
1
1
1
1
1
1
1
1
1
1
1
1
1
1
1
1
1
1
1
1
1
1
1
1
1
1
1
1
1
1
1
1
1
1
1
1
1
1
1
1
1
1
1
1
1
1
1
1
1
1
1
1
1
1
1
1
1
1
1
1
1
1
1
1
1
1
1
1
1
1
1
1
1
1
1
1
1
1
1
1
1
1
1
1
1
1
1
1
1
1
1
1
1
1
1
1
1
1
1
1
1
1
1
1
0.999999
1
1
1
1
1
1
1
1
1
1
1
1
1
1
1
1
1
1
1
1
1
1
1
1
1
1
1
1
1
1
1
1
1
1
1
1
1
1
1
1
1
1
1
1
1
1
1
1.06776e-19
2.89494e-20
5.33987e-24
6.87759e-26
9.36954e-28
2.37389e-29
2.99061e-31
3.15033e-33
2.98099e-35
2.48778e-37
1.81095e-39
1.1346e-41
6.01884e-44
2.64192e-46
9.27321e-49
2.47532e-51
4.61197e-54
5.05153e-57
2.5095e-57
1.73093e-17
4.55006e-18
5.2907e-22
5.33987e-24
6.87759e-26
3.64646e-27
4.6377e-29
4.68303e-31
4.38874e-33
3.6306e-35
2.61588e-37
1.61664e-39
8.40816e-42
3.57413e-44
1.18738e-46
2.88077e-49
4.41069e-52
2.54063e-55
2.50938e-57
1.69752e-15
3.62941e-16
7.28527e-20
8.66308e-22
1.13726e-23
2.96313e-25
3.54694e-27
3.5934e-29
3.30033e-31
2.67768e-33
1.89049e-35
1.13908e-37
5.71962e-40
2.31285e-42
7.08967e-45
1.45682e-47
2.42155e-50
2.02482e-53
2.4253e-55
4.40565e-14
1.89676e-14
4.29443e-18
5.93396e-20
8.20993e-22
1.69888e-23
1.94534e-25
1.9272e-27
1.72807e-29
1.36757e-31
9.38254e-34
5.45108e-36
2.59654e-38
1.01277e-40
3.4268e-43
8.63718e-46
1.44139e-48
1.13415e-51
2.04742e-53
1.58074e-12
6.88008e-13
1.9763e-16
2.85452e-18
4.01298e-20
7.76954e-22
8.45448e-24
8.10316e-26
7.0412e-28
5.38501e-30
3.5393e-32
2.17795e-34
1.13236e-36
4.83197e-39
1.63037e-41
4.09369e-44
6.80235e-47
5.2111e-50
1.22009e-51
4.16959e-11
1.32385e-11
7.23522e-15
1.10098e-16
1.9042e-18
2.84744e-20
2.88668e-22
2.66349e-24
2.33282e-26
1.9126e-28
1.36656e-30
8.38064e-33
4.33237e-35
1.83906e-37
6.18096e-40
1.54423e-42
2.55307e-45
2.11126e-48
5.75995e-50
1.71317e-08
9.04235e-10
2.10616e-13
3.31553e-15
6.83613e-17
7.94325e-19
7.53116e-21
7.66043e-23
7.11234e-25
5.80345e-27
4.12131e-29
2.51267e-31
1.29111e-33
5.4519e-36
1.82133e-38
4.52318e-41
7.43487e-44
6.29889e-47
2.16173e-48
4.76303e-07
2.21857e-08
5.70695e-12
9.19569e-14
1.54709e-15
2.02361e-17
2.09987e-19
2.17479e-21
2.00806e-23
1.62816e-25
1.14856e-27
6.95333e-30
3.54703e-32
1.48737e-34
4.93275e-37
1.21599e-39
1.98408e-42
1.6734e-45
6.30045e-47
1
1
1
1
1
1
1
1
1
1
1
1
1
1
1
1
1
1
1
1
1
1
1
1
1
1
1
1
1
1
1
1
1
1
1
1
1
1
1
1
1
1
1
1
1
1
1
1
1
1
1
1
1
1
1
1
1
1
1
1
1
1
1
1
1
1
1
1
1
1
1
1
1
1
1
1
1
1
1
1
1
1
1
1
1
1
1
1
1
1
1
1
1
1
1
1
1
1
1
1
1
1
1
1
1
1
1
1
1
1
1
1
1
1
1
1
1
1
1
1
1
1
1
1
1
1
1
1
1
1
1
1
1
1
1
1
1
1
1
1
1
1
1
1
1
1
1
1
1
1
1
1
1
1
1
1
1
1
1
1
1
1
1
1
1
1
1
1
1
1
1
1
1
1
1
1
1
1
1
1
1
1
1
1
1
1
1
1
1
1
1
1
1
1
1
1
1
1
1
1
1
1
1
1
1
1
1
1
1
1
1
1
1
1
1
1
1
1
1
1
1
1
1
1
1
1
1
1
1
1
1
1
1
1
1
1
1
1
1
1
1
1
1
1
1
1
1
1
1
1
1
1
1
1
1
1
1
1
1
1
1
1
1
1
1
1
1
1
1
1
1
1
1
1
1
1
1
1
1
1
1
1
1
1
1
1
1
1
1
1
1
1
1
1
1
1
1
1
1
1
1
1
1
1
1
1
1
1
1
1
1
1
1
1
1
1
1
1
1
1
1
1
1
1
1
1
1
1
1
1
1
1
1
1
1
1
1
1
1
1
1
1
1
1
1
0.999999
0.999999
0.999999
0.999999
0.999999
0.999999
0.999999
0.999999
0.999999
0.999999
0.999999
0.999999
0.999999
0.999999
0.999999
0.999998
0.999998
0.999998
0.999998
0.999998
0.999998
0.999997
0.999995
0.999985
0.999985
0.999985
0.999985
0.999985
0.999984
0.999984
0.999983
0.999983
0.999982
0.999982
0.999981
0.99998
0.999979
0.999978
0.999976
0.999975
0.999973
0.999972
0.99997
0.999966
0.999959
0.999922
0.999728
0.999727
0.999725
0.999723
0.999719
0.999715
0.99971
0.999704
0.999697
0.999688
0.999679
0.999669
0.999657
0.999644
0.999629
0.999612
0.999593
0.999572
0.999548
0.999525
0.99946
0.999366
0.997056
0.820511
0.820263
0.819873
0.819314
0.818561
0.817618
0.816484
0.815157
0.813635
0.811912
0.809982
0.807834
0.805452
0.802814
0.799884
0.79661
0.79291
0.78878
0.784274
0.781108
0.759847
0.731262
0.500881
4.80034e-42
7.66518e-42
1.46937e-39
2.90875e-37
3.87531e-35
3.88525e-33
3.11369e-31
2.07228e-29
1.17549e-27
5.79083e-26
2.51327e-24
9.71905e-23
3.37981e-21
1.06523e-19
3.06422e-18
8.09833e-17
1.97949e-15
4.50684e-14
9.63654e-13
1.95702e-11
3.83017e-10
7.45175e-09
1.36427e-07
8.12562e-43
5.07312e-42
1.58881e-39
3.08625e-37
4.03205e-35
3.9532e-33
3.09118e-31
2.00322e-29
1.10446e-27
5.2791e-26
2.21874e-24
8.29045e-23
2.77838e-21
8.41093e-20
2.29955e-18
5.7292e-17
1.31013e-15
2.7984e-14
5.47631e-13
9.51312e-12
1.1877e-10
1.28329e-09
2.02737e-08
1.32104e-44
8.12562e-43
2.99761e-40
5.64375e-38
7.06784e-36
6.61771e-34
4.39587e-32
2.25352e-30
1.00086e-28
3.90511e-27
1.3526e-25
4.19183e-24
1.16932e-22
2.94905e-21
6.74499e-20
1.4078e-18
2.68701e-17
8.44594e-16
1.68912e-14
1.02639e-13
1.26096e-12
1.44758e-11
1.26917e-09
4.93095e-47
1.31737e-44
3.31406e-42
4.01627e-40
3.63875e-38
2.62199e-36
1.56301e-34
7.91298e-33
3.46527e-31
1.33106e-29
4.53183e-28
1.37838e-26
3.76722e-25
9.29135e-24
2.08753e-22
1.04597e-20
4.78175e-19
1.35355e-17
2.97784e-16
3.52883e-15
2.02987e-15
-2.6215e-14
-1.8879e-13
3.36348e-50
9.15664e-48
-3.06484e-45
-6.424e-43
-8.07121e-41
-7.31414e-39
-5.24024e-37
-3.1509e-35
-1.61629e-33
-7.15914e-32
-2.78013e-30
-9.57399e-29
-2.94909e-27
-8.17165e-26
-6.93765e-25
3.38487e-23
1.709e-21
5.13254e-20
1.19624e-18
3.47662e-17
2.7781e-16
-2.21656e-15
-4.2029e-14
-3.60196e-52
-9.59076e-49
-1.65992e-46
-1.93152e-44
-1.68377e-42
-1.1712e-40
-6.88297e-39
-3.49337e-37
-1.54016e-35
-5.98062e-34
-2.06756e-32
-6.41736e-31
-1.79963e-29
-4.41073e-28
-7.64694e-27
-8.55212e-26
2.09832e-25
4.45145e-23
1.57309e-21
3.59829e-20
2.07704e-18
1.47385e-17
8.37547e-16
-5.14034e-57
3.4542e-56
1.67437e-53
1.89198e-51
1.63744e-49
1.18186e-47
7.00395e-46
3.48938e-44
1.61594e-42
7.01216e-41
2.87315e-39
1.10912e-37
4.0059e-36
1.12042e-33
7.41681e-32
2.88284e-30
8.71596e-29
2.28045e-27
5.32076e-26
1.10059e-24
6.79016e-23
6.86263e-22
2.15665e-22
-2.6108e-61
1.06643e-59
2.11602e-58
-2.80456e-55
-3.95456e-53
-3.54503e-51
-1.69101e-49
-3.97953e-49
4.5962e-46
4.1897e-44
2.52294e-42
1.21543e-40
4.99768e-39
1.97339e-36
1.11172e-34
4.29875e-33
1.37493e-31
3.85779e-30
9.75224e-29
2.2098e-27
1.49843e-25
1.72832e-24
3.47501e-25
-1.43812e-65
-3.06551e-63
-9.2947e-61
-1.07942e-58
-8.86241e-57
-5.2558e-55
-2.07128e-53
-2.35966e-52
4.24776e-50
4.62318e-48
3.07718e-46
1.61441e-44
1.49547e-42
1.1684e-39
6.95554e-38
2.88988e-36
1.00506e-34
3.08691e-33
8.59571e-32
2.16227e-30
1.63902e-28
2.15362e-27
1.52111e-28
-1.77575e-70
-7.74359e-68
-1.81124e-65
-2.76312e-63
-3.22698e-61
-3.0853e-59
-2.52279e-57
-1.82817e-55
-1.2037e-53
-7.22415e-52
-3.97659e-50
-2.01448e-48
-1.07241e-46
1.58892e-43
1.05064e-41
4.85912e-40
1.87661e-38
6.41004e-37
1.99107e-35
5.61818e-34
4.8382e-32
7.25774e-31
-4.43162e-33
3.35973e-79
7.55382e-77
1.96103e-74
3.28142e-72
4.08609e-70
4.03084e-68
3.16086e-66
1.88887e-64
8.90357e-63
2.98611e-61
3.37083e-60
-4.54468e-58
5.18353e-55
2.72539e-52
2.25893e-50
1.20309e-48
5.2643e-47
2.02848e-45
7.10585e-44
2.26622e-42
2.24568e-40
3.87101e-39
1.31764e-39
6.96596e-84
5.55848e-81
2.01245e-78
4.67875e-76
7.97257e-74
1.06859e-71
1.17876e-69
1.1048e-67
9.00831e-66
6.50518e-64
4.21981e-62
2.22374e-60
1.4177e-58
5.92298e-56
8.0677e-54
5.22641e-52
2.66145e-50
1.17714e-48
4.70963e-47
1.71499e-45
1.9855e-43
3.94284e-42
6.72298e-43
-3.33907e-91
2.31683e-86
1.55819e-83
5.15585e-81
1.13595e-78
1.88355e-76
2.50659e-74
2.79186e-72
2.6759e-70
2.25521e-68
1.6993e-66
9.13792e-65
7.19315e-63
6.815e-61
1.15847e-57
1.03849e-55
6.43103e-54
3.34439e-52
1.55304e-50
6.5344e-49
9.01024e-47
2.07494e-45
-1.32531e-45
-6.64359e-94
-4.54007e-91
-1.52848e-88
-3.38833e-86
-5.57268e-84
-7.23913e-82
-7.69739e-80
-6.8333e-78
-5.0978e-76
-3.15678e-74
-3.5346e-72
-3.13449e-70
-1.98726e-71
1.19902e-66
1.73891e-62
4.59788e-60
3.85134e-58
2.46116e-56
1.36093e-54
6.73354e-53
1.1373e-50
3.06376e-49
-4.06925e-49
5.49238e-102
4.98534e-99
2.2556e-96
6.81304e-94
1.54756e-91
2.82098e-89
4.30136e-87
5.64737e-85
6.52257e-83
6.73735e-81
6.30647e-79
5.40794e-77
4.28174e-75
3.16886e-73
2.20539e-71
6.70026e-69
1.41844e-66
1.25382e-64
8.69374e-63
5.21056e-61
1.12612e-58
3.60728e-57
-6.67822e-57
3.35091e-107
3.94501e-104
2.29255e-101
8.74302e-99
2.48085e-96
5.5999e-94
1.04934e-91
1.68254e-89
2.36135e-87
2.9517e-85
3.3323e-83
3.14979e-81
3.26853e-79
2.85223e-77
2.33065e-75
1.79961e-73
4.80031e-71
1.78073e-68
1.84583e-66
1.44739e-64
4.37798e-62
1.6995e-60
2.75797e-63
7.96107e-113
1.23303e-109
9.20596e-107
4.43211e-104
1.56265e-101
4.34179e-99
9.95985e-97
1.94748e-94
3.32278e-92
5.03735e-90
6.8847e-88
7.73389e-86
9.9445e-84
1.04112e-81
1.02554e-79
9.53951e-78
8.43631e-76
8.11086e-74
1.10796e-70
1.67974e-68
9.15949e-66
4.47555e-64
-7.42414e-65
2.45279e-120
2.68702e-116
3.78805e-113
2.77548e-110
1.36635e-107
5.07394e-105
1.51789e-102
3.81263e-100
8.27275e-98
1.58379e-95
2.71917e-93
4.2476e-91
5.31712e-89
8.09538e-87
9.88684e-85
1.14167e-82
1.25405e-80
1.31646e-78
1.32734e-76
1.29113e-74
7.88298e-70
5.22311e-68
-1.45923e-68
9.29553e-127
1.22193e-123
7.69315e-121
3.31872e-118
1.2348e-115
4.77133e-113
1.95276e-110
7.60224e-108
2.61429e-105
7.80709e-103
2.02766e-100
4.73726e-98
9.87547e-96
1.87802e-93
2.56969e-91
5.57022e-89
7.94833e-87
1.08817e-84
1.42873e-82
1.80892e-80
1.57868e-74
1.4105e-72
-3.7633e-73
-7.78047e-133
-1.69221e-129
-1.77734e-126
-1.21335e-123
-5.98772e-121
-2.2209e-118
-6.08071e-116
-1.03211e-113
4.50876e-112
1.21259e-108
6.0261e-106
2.14613e-103
6.38158e-101
1.25487e-98
4.09797e-96
8.65464e-94
1.74869e-91
3.37201e-89
6.23788e-87
1.11363e-84
2.88443e-81
1.28843e-78
-4.05337e-78
-3.25457e-140
-1.05504e-136
-1.68066e-133
-1.76297e-130
-1.37999e-127
-8.59912e-125
-4.4317e-122
-1.93533e-119
-7.26688e-117
-2.35799e-114
-6.55173e-112
-1.49675e-109
-2.38697e-107
7.25673e-107
-1.78972e-102
6.70609e-100
4.49317e-97
1.43649e-94
4.45825e-92
1.65211e-90
3.80628e-87
-7.25834e-85
-8.14108e-82
3.52668e-147
-3.74535e-146
-1.11952e-142
-2.02467e-139
-2.73294e-136
-2.94279e-133
-2.63383e-130
-2.01378e-127
-1.34137e-124
-7.89801e-122
-4.15426e-119
-1.96589e-116
-8.37882e-114
-3.20853e-111
-1.08676e-108
-3.11934e-106
-3.97967e-103
4.94919e-103
7.46146e-100
-2.02934e-94
6.56989e-94
-1.17021e-88
-3.42332e-86
6.89091e-159
1.05023e-154
7.60548e-151
1.45517e-147
3.4403e-147
3.19943e-147
-2.62808e-144
-6.54568e-141
-1.40698e-137
-2.5742e-134
-4.24739e-131
-6.37734e-128
-8.72145e-125
-1.09017e-121
-1.24501e-118
-1.28914e-115
-1.18658e-112
-9.20038e-110
-3.6504e-106
-2.7916e-106
-2.53781e-103
-1.4667e-94
-2.51624e-92
0.334483
0.00143587
8.89557e-05
5.14095e-06
0.222339
0.000910258
5.26764e-05
2.68522e-06
0.140319
0.000248046
1.19964e-05
5.39052e-07
0.105181
7.89706e-05
3.05821e-06
1.23163e-07
0.084273
3.73188e-05
1.13884e-06
3.98881e-08
0.0694821
2.09445e-05
5.21358e-07
1.59762e-08
0.0582206
1.23492e-05
2.54767e-07
6.86382e-09
0.0492759
7.42248e-06
1.27406e-07
2.98188e-09
0.0419783
4.50206e-06
6.45469e-08
1.2816e-09
0.0359217
2.74166e-06
3.26773e-08
5.4372e-10
0.0308491
1.67431e-06
1.91379e-08
2.20942e-10
0.0265917
1.03004e-06
1.00863e-08
1.16478e-10
0.0230471
6.4949e-07
5.11667e-09
5.15828e-11
0.0202068
4.39232e-07
1.45203e-09
2.34206e-11
0.0183191
3.51512e-07
-3.40401e-09
-8.9073e-13
0.0176088
3.34659e-07
1.46573e-09
-1.923e-11
0.0174235
4.4931e-07
1.48376e-09
2.35493e-12
0.0465927
4.09556e-06
8.36499e-09
1.06221e-13
0.0676775
7.27975e-05
4.15998e-10
4.44095e-15
2.3948e-06
0.000631641
9.91212e-06
-1.1522e-14
1.54971e-06
2.5625e-05
3.32386e-07
-1.43909e-15
1.63716e-08
2.39261e-08
-2.60947e-12
-6.98442e-15
6.22313e-12
2.41576e-10
-7.08017e-12
-3.5825e-17
1.09356e-14
-1.04811e-12
-1.88297e-14
-7.75666e-18
7.60953e-15
-1.19134e-16
-8.60731e-16
3.61435e-24
8.98249e-19
3.58128e-17
3.22097e-20
5.96177e-26
3.76051e-21
1.75232e-19
8.68347e-23
7.91311e-28
6.83864e-24
3.7647e-22
6.6349e-25
8.40509e-30
3.39226e-27
2.17109e-25
2.2722e-31
7.08059e-32
3.95688e-38
2.11612e-33
1.58818e-31
4.68647e-34
3.00532e-41
3.69922e-36
3.1963e-34
2.40869e-36
4.41864e-45
3.39728e-39
3.39195e-37
9.44157e-39
-1.14523e-48
8.9948e-43
1.0385e-40
7.64441e-46
1.10632e-55
1.81126e-53
2.73156e-48
3.83506e-46
5.3518e-59
1.02984e-56
2.96068e-51
4.85865e-49
1.27043e-62
2.96526e-60
1.98101e-54
3.85118e-52
8.63663e-67
2.51085e-64
6.85196e-58
1.60962e-55
-4.16236e-72
1.27163e-69
4.41622e-63
8.85263e-60
8.24082e-76
4.54425e-73
2.58764e-70
2.04512e-64
7.41267e-80
6.97592e-77
7.12569e-74
1.39944e-67
1.5525e-85
9.36211e-82
5.08488e-78
4.20652e-71
-3.80679e-91
-1.48803e-88
1.0095e-82
3.23913e-75
1.67957e-07
3.94309e-09
7.62644e-11
1.30362e-12
2.0413e-14
5.16094e-16
6.21932e-18
6.20601e-20
5.57909e-22
4.42118e-24
3.04784e-26
1.7995e-28
8.91464e-31
3.60037e-33
1.13393e-35
2.57638e-38
3.56012e-41
2.32192e-44
1.67341e-45
9.24048e-08
2.36454e-09
4.90147e-11
8.92327e-13
1.47277e-14
4.90414e-16
6.0874e-18
6.21804e-20
5.75231e-22
4.6863e-24
3.33323e-26
2.04799e-28
1.07165e-30
4.68391e-33
1.66345e-35
4.60608e-38
9.30593e-41
1.21032e-43
3.36739e-45
1.82975e-08
4.85369e-10
1.0507e-11
2.06371e-13
1.05638e-14
1.81081e-16
2.16468e-18
2.32101e-20
2.18878e-22
1.80822e-24
1.30162e-26
8.09742e-29
4.30233e-31
1.9192e-33
7.00991e-36
2.01845e-38
4.30769e-41
6.02082e-44
5.6377e-46
3.97739e-09
1.03939e-10
2.34726e-12
4.73212e-14
2.24166e-15
3.25617e-17
3.77249e-19
3.9672e-21
3.66828e-23
2.97082e-25
2.09506e-27
1.27568e-29
6.6263e-32
2.88576e-34
1.02738e-36
2.87861e-39
5.96718e-42
8.0725e-45
9.17442e-47
1.16811e-09
2.86916e-11
6.53235e-13
2.53354e-14
5.79374e-16
7.67888e-18
8.81391e-20
8.96451e-22
8.01471e-24
6.27743e-26
4.28318e-28
2.52448e-30
1.26988e-32
5.35861e-35
1.84981e-37
5.02958e-40
1.01264e-42
1.33202e-45
1.49053e-47
4.18971e-10
9.46473e-12
2.05214e-13
1.02044e-14
1.74766e-16
2.15674e-18
2.38944e-20
2.3333e-22
2.00265e-24
1.50622e-26
9.87446e-29
5.59607e-31
2.7091e-33
1.10143e-35
3.66878e-38
9.64227e-41
1.88025e-43
2.40493e-46
2.29265e-48
1.61357e-10
3.32264e-12
6.88214e-14
3.60059e-15
5.45066e-17
6.34301e-19
6.71565e-21
6.26368e-23
5.13801e-25
3.69584e-27
2.31916e-29
1.25932e-31
5.84835e-34
2.28421e-36
7.32183e-39
1.85549e-41
3.49665e-44
4.34224e-47
3.16599e-49
6.30522e-11
1.17616e-12
2.38134e-14
1.20179e-15
1.6587e-17
1.81423e-19
1.81755e-21
1.60657e-23
1.25094e-25
8.5538e-28
5.10976e-30
2.6454e-32
1.17325e-34
4.38373e-37
1.34679e-39
3.27795e-42
5.94635e-45
7.13885e-48
3.79328e-50
2.41685e-11
4.1959e-13
1.78231e-14
3.90001e-16
4.67676e-18
4.90817e-20
4.59668e-22
3.80986e-24
2.78911e-26
1.79743e-28
1.01419e-30
4.97042e-33
2.09138e-35
7.42965e-38
2.1749e-40
5.05475e-43
8.77619e-46
1.01226e-48
3.85625e-51
8.9508e-12
1.42982e-13
7.97506e-15
1.20312e-16
1.28092e-18
1.23943e-20
1.07045e-22
8.21727e-25
5.5932e-27
3.36302e-29
1.7761e-31
8.17216e-34
3.23767e-36
1.08599e-38
3.00941e-41
6.63768e-44
1.0964e-46
1.20737e-49
3.26827e-52
3.14993e-12
4.62995e-14
2.8493e-15
3.49656e-17
3.29671e-19
2.88324e-21
2.26164e-23
1.58594e-25
9.91344e-28
5.50044e-30
2.69259e-32
1.15309e-34
4.26827e-37
1.34244e-39
3.49972e-42
7.28429e-45
1.1387e-47
1.19101e-50
2.27385e-53
9.4858e-13
1.4276e-14
9.25918e-16
9.5001e-18
7.82833e-20
6.06555e-22
4.24652e-24
2.67836e-26
1.51684e-28
7.67655e-31
3.44884e-33
1.3631e-35
4.68042e-38
1.37194e-40
3.34763e-43
6.54701e-46
9.65058e-49
9.55527e-52
1.28258e-54
4.71859e-13
3.63739e-15
2.79027e-16
2.37857e-18
1.67819e-20
1.12477e-22
6.88419e-25
3.83738e-27
1.94057e-29
8.85375e-32
3.61703e-34
1.30993e-36
4.1496e-39
1.12905e-41
2.57125e-44
4.71634e-47
6.54899e-50
6.13505e-53
5.82561e-56
1.66478e-13
1.70625e-15
7.84849e-17
5.35294e-19
3.15454e-21
1.77266e-23
9.2481e-26
4.46746e-28
1.98824e-30
8.09478e-33
2.98711e-35
9.8744e-38
2.88097e-40
7.27595e-43
1.54842e-45
2.66968e-48
3.50241e-51
3.11467e-54
2.13512e-57
6.50578e-14
1.47408e-15
2.08837e-17
1.05622e-19
4.96105e-22
2.23697e-24
9.64918e-27
3.96278e-29
1.53607e-31
5.55861e-34
1.85387e-36
5.61431e-39
1.51729e-41
3.58151e-44
7.1767e-47
1.17229e-49
1.46473e-52
1.24624e-55
6.39981e-59
-3.24585e-14
8.09331e-16
5.00679e-18
1.67327e-20
5.65518e-23
1.95581e-25
6.86107e-28
2.39937e-30
8.19643e-33
2.68079e-35
8.23165e-38
2.32676e-40
5.92952e-43
1.3301e-45
2.54818e-48
3.99868e-51
4.8189e-54
3.96792e-57
1.67236e-60
-5.9105e-14
2.9869e-16
6.85411e-19
1.32155e-21
3.17322e-24
8.8622e-27
2.71698e-29
8.69452e-32
2.78851e-34
8.68921e-37
2.56415e-39
7.00424e-42
1.73156e-44
3.77836e-47
7.05626e-50
1.08135e-52
1.27467e-55
1.02809e-58
4.2433e-62
-2.04928e-16
-6.54071e-18
1.88603e-20
2.73157e-23
6.38343e-26
1.85838e-28
5.9984e-31
1.98384e-33
6.4587e-36
2.02193e-38
5.95521e-41
1.61731e-43
3.96566e-46
8.57008e-49
1.58371e-51
2.40042e-54
2.79817e-57
2.23194e-60
9.12851e-64
4.00404e-18
1.16234e-19
2.88884e-22
4.84834e-25
1.10558e-27
3.15808e-30
1.04925e-32
3.50064e-35
1.17014e-37
3.74011e-40
1.11511e-42
3.04944e-45
7.5014e-48
1.622e-50
2.99337e-53
4.52463e-56
5.25489e-59
4.17328e-62
1.69801e-65
1.07336e-19
7.64809e-21
7.76452e-24
1.18084e-26
2.47749e-29
6.38857e-32
1.87921e-34
5.61961e-37
1.85046e-39
5.8687e-42
1.76521e-44
4.89521e-47
1.21651e-49
2.64844e-52
4.91045e-55
7.44325e-58
8.65713e-61
6.87802e-64
2.79605e-67
-1.34832e-19
2.60724e-22
1.9742e-25
2.74745e-28
5.35532e-31
1.28683e-33
3.53698e-36
9.93536e-39
2.98422e-41
8.68223e-44
2.53438e-46
6.97627e-49
1.73611e-51
3.82337e-54
7.15661e-57
1.09216e-59
1.27687e-62
1.01841e-65
4.14918e-69
-8.84163e-21
4.43167e-24
4.43754e-27
5.89053e-30
1.08326e-32
2.45974e-35
6.40629e-38
1.71029e-40
4.88549e-43
1.35704e-45
3.72343e-48
9.61887e-51
2.31205e-53
5.07154e-56
9.46417e-59
1.45378e-61
1.71389e-64
1.37609e-67
5.63151e-71
-1.59933e-21
9.51909e-26
8.84476e-29
1.15629e-31
2.04193e-34
4.43811e-37
1.10591e-39
2.82834e-42
7.76022e-45
2.07641e-47
5.49759e-50
1.37464e-52
3.18236e-55
6.68452e-58
1.20351e-60
1.83388e-63
2.16359e-66
1.74018e-69
7.13712e-73
-1.1428e-23
1.88786e-27
1.52551e-30
2.05469e-33
3.55716e-36
7.51373e-39
1.81265e-41
4.48332e-44
1.19032e-46
3.08659e-49
7.93915e-52
1.93407e-54
4.37273e-57
8.99442e-60
1.59144e-62
2.37108e-65
2.74432e-68
2.18074e-71
8.89775e-75
2.47692e-27
2.78169e-29
2.47585e-32
3.27595e-35
5.68876e-38
1.18733e-40
2.80876e-43
6.78786e-46
1.75859e-48
4.45012e-51
1.11831e-53
2.66625e-56
5.91348e-59
1.19651e-61
2.0884e-64
3.07677e-67
3.53212e-70
2.79343e-73
1.13806e-76
8.3131e-29
3.00472e-31
3.26691e-34
4.65515e-37
8.31144e-40
1.74445e-42
4.10135e-45
9.78866e-48
2.49634e-50
6.20976e-53
1.53385e-55
3.59719e-58
7.85925e-61
1.56927e-63
2.70873e-66
3.95623e-69
4.51402e-72
3.55755e-75
1.44771e-78
4.72566e-31
2.27655e-33
3.64611e-36
5.86896e-39
1.10606e-41
2.37721e-44
5.63163e-47
1.34199e-49
3.39896e-52
8.37302e-55
2.04542e-57
4.74311e-60
1.02518e-62
2.02707e-65
3.46992e-68
5.03439e-71
5.7169e-74
4.49355e-77
1.82675e-80
5.82135e-33
8.52871e-36
3.33607e-38
6.5496e-41
1.33925e-43
3.0018e-46
7.26449e-49
1.7473e-51
4.43455e-54
1.08984e-56
2.64936e-59
6.10598e-62
1.31116e-64
2.57629e-67
4.38546e-70
6.3338e-73
7.16892e-76
5.62491e-79
2.2847e-82
6.01583e-35
5.31941e-38
2.51077e-40
6.47174e-43
1.47682e-45
3.51407e-48
8.80413e-51
2.16034e-53
5.54223e-56
1.36879e-58
3.3315e-61
7.6699e-64
1.64313e-66
3.21928e-69
5.46419e-72
7.87212e-75
8.89379e-78
6.97199e-81
2.82983e-84
5.18611e-37
5.33787e-40
1.55176e-42
5.68219e-45
1.48752e-47
3.82096e-50
1.00364e-52
2.53811e-55
6.63775e-58
1.65912e-60
4.06697e-63
9.39927e-66
2.01709e-68
3.95367e-71
6.70899e-74
9.66067e-77
1.09098e-79
8.55178e-83
3.46907e-86
3.71569e-39
4.63528e-42
7.44224e-45
4.45153e-47
1.37539e-49
3.87111e-52
1.07846e-54
2.83775e-57
7.62618e-60
1.94218e-62
4.822e-65
1.12402e-67
2.42578e-70
4.77197e-73
8.116e-76
1.17033e-78
1.32286e-81
1.03769e-84
4.20759e-88
2.20661e-41
3.48772e-44
6.5048e-47
3.15838e-49
1.17425e-51
3.66981e-54
1.0956e-56
3.02597e-59
8.41885e-62
2.19838e-64
5.55772e-67
1.31252e-69
2.85917e-72
5.66201e-75
9.67484e-78
1.39963e-80
1.5855e-83
1.24554e-86
5.04867e-90
5.89227e-44
2.27398e-46
5.07557e-49
2.08047e-51
9.34948e-54
3.27192e-56
1.05612e-58
3.08596e-61
8.94946e-64
2.41018e-66
6.23518e-69
1.49806e-71
3.30544e-74
6.60805e-77
1.13697e-79
1.65294e-82
1.87873e-85
1.47908e-88
5.99387e-92
8.62983e-47
1.28836e-48
3.54641e-51
1.30214e-53
6.97809e-56
2.75893e-58
9.70105e-61
3.01988e-63
9.18516e-66
2.56477e-68
6.82068e-71
1.67358e-73
3.75231e-76
7.59255e-79
1.31813e-81
1.92876e-84
2.20196e-87
1.73837e-90
7.04349e-94
8.03185e-50
4.02933e-51
2.23072e-53
7.74972e-56
4.93858e-58
2.21292e-60
8.53003e-63
2.84628e-65
9.12956e-68
2.65582e-70
7.29017e-73
1.83317e-75
4.18852e-78
8.59835e-81
1.50899e-83
2.22548e-86
2.55447e-89
2.0234e-92
8.19748e-96
4.02724e-53
9.14845e-54
1.06069e-55
4.9617e-58
3.33674e-60
1.69794e-62
7.21453e-65
2.59431e-67
8.81808e-70
2.68379e-72
7.63177e-75
1.97275e-77
4.60515e-80
9.6109e-83
1.70783e-85
2.54178e-88
2.93584e-91
2.33436e-94
9.45664e-98
6.57651e-57
1.7254e-56
3.64196e-58
3.15897e-60
2.16333e-62
1.25355e-64
5.89893e-67
2.2968e-69
8.30784e-72
2.65512e-74
7.8463e-77
2.09047e-79
4.99668e-82
1.06204e-84
1.91356e-87
2.87705e-90
3.34637e-93
2.67205e-96
1.08241e-99
5.54672e-59
2.73416e-59
1.13449e-60
1.42392e-62
1.35177e-64
8.95209e-67
4.68728e-69
1.98427e-71
7.66563e-74
2.58055e-76
7.94585e-79
2.18679e-81
5.36167e-84
1.16235e-86
2.126e-89
3.23191e-92
3.78774e-95
3.03826e-98
1.2307e-101
7.54828e-62
3.71842e-62
3.26168e-63
6.76791e-65
8.1623e-67
6.22013e-69
3.63946e-71
1.6811e-73
6.95694e-76
2.47309e-78
7.95106e-81
2.2643e-83
5.70297e-86
1.26246e-88
2.34617e-91
3.60864e-94
4.26344e-97
3.43626e-100
1.39183e-103
7.2932e-65
4.76446e-65
8.84112e-66
3.31201e-67
4.79398e-69
4.23112e-71
2.77747e-73
1.40395e-75
6.23823e-78
2.34615e-80
7.88799e-83
2.32736e-85
6.02769e-88
1.36365e-90
2.57659e-93
4.01168e-96
4.77947e-99
3.87128e-102
1.55078e-105
5.24993e-68
7.89892e-68
3.26248e-68
1.55686e-69
2.74551e-71
2.83484e-73
2.0963e-75
1.16212e-77
5.5531e-80
2.21225e-82
7.78551e-85
2.38182e-87
6.34723e-90
1.46821e-92
2.82161e-95
4.44832e-98
5.3452e-101
4.35097e-104
1.73763e-107
1.94115e-71
7.34609e-71
9.82391e-70
1.59743e-71
1.57102e-73
1.13279e-75
7.70669e-78
4.71713e-80
2.43542e-82
1.03125e-84
3.80876e-87
1.2106e-89
3.32477e-92
7.87372e-95
1.54072e-97
2.46173e-100
2.98591e-103
2.47798e-106
1.73763e-107
)
;

boundaryField
{
    leftWall
    {
        type            zeroGradient;
    }
    rightWall
    {
        type            zeroGradient;
    }
    lowerWall
    {
        type            zeroGradient;
    }
    atmosphere
    {
        type            inletOutlet;
        inletValue      uniform 0;
        value           nonuniform List<scalar> 
46
(
0
0
0
0
0
0
0
0
0
0
0
0
0
0
0
0
0
0
0
0
0
0
0
0
0
0
0
0
7.34609e-71
9.82391e-70
1.59743e-71
1.57102e-73
1.13279e-75
7.70669e-78
4.71713e-80
2.43542e-82
1.03125e-84
3.80876e-87
1.2106e-89
3.32477e-92
7.87372e-95
1.54072e-97
2.46173e-100
2.98591e-103
2.47798e-106
1.73763e-107
)
;
    }
    defaultFaces
    {
        type            empty;
    }
}


// ************************************************************************* //
