/*--------------------------------*- C++ -*----------------------------------*\
| =========                 |                                                 |
| \\      /  F ield         | OpenFOAM: The Open Source CFD Toolbox           |
|  \\    /   O peration     | Version:  2206                                  |
|   \\  /    A nd           | Website:  www.openfoam.com                      |
|    \\/     M anipulation  |                                                 |
\*---------------------------------------------------------------------------*/
FoamFile
{
    version     2.0;
    format      ascii;
    arch        "LSB;label=32;scalar=64";
    class       volScalarField;
    location    "0.025";
    object      p;
}
// * * * * * * * * * * * * * * * * * * * * * * * * * * * * * * * * * * * * * //

dimensions      [1 -1 -2 0 0 0 0];

internalField   nonuniform List<scalar> 
2268
(
1383.67
1382.19
1379.21
1374.74
1368.82
1361.47
1352.72
1342.65
1331.3
1318.77
1305.18
1290.66
1275.38
1259.58
1243.51
1227.49
1211.9
1197.16
1183.76
1172.19
1162.97
1156.54
1153.24
1326.09
1324.6
1321.61
1317.12
1311.17
1303.79
1295
1284.87
1273.45
1260.83
1247.11
1232.44
1216.98
1200.94
1184.58
1168.2
1152.2
1137.01
1123.12
1111.07
1101.4
1094.61
1091.12
1269.78
1268.29
1265.27
1260.75
1254.75
1247.3
1238.43
1228.18
1216.62
1203.82
1189.87
1174.9
1159.07
1142.57
1125.65
1108.6
1091.8
1075.68
1060.76
1047.63
1036.92
1029.27
1025.28
1214.76
1213.26
1210.21
1205.64
1199.58
1192.03
1183.03
1172.62
1160.85
1147.78
1133.49
1118.1
1101.73
1084.56
1066.8
1048.75
1030.72
1013.17
996.629
981.749
969.305
960.173
955.268
1161.05
1159.53
1156.44
1151.81
1145.66
1137.99
1128.84
1118.22
1106.19
1092.78
1078.06
1062.11
1045.05
1027.01
1008.18
988.78
969.114
949.59
930.748
913.297
898.169
886.566
879.965
1108.66
1107.11
1103.98
1099.28
1093.02
1085.22
1075.88
1065.03
1052.68
1038.87
1023.65
1007.06
989.185
970.109
949.962
928.916
907.208
885.143
863.217
842.142
822.967
807.268
797.336
1057.6
1056.03
1052.84
1048.07
1041.7
1033.74
1024.2
1013.09
1000.4
986.165
970.385
953.087
934.299
914.062
892.432
869.492
845.369
820.184
794.286
768.249
742.983
720.171
701.725
1007.88
1006.28
1003.05
998.189
991.705
983.592
973.844
962.457
949.422
934.73
918.37
900.328
880.584
859.117
835.9
810.906
784.107
755.408
724.666
692.159
658.252
624.862
590.161
1.39647
1.36897
1.32326
1.26971
1.21456
1.16118
1.11125
1.06557
1.02433
0.987584
0.955227
0.927055
0.902935
0.882644
0.86602
0.852923
0.843206
0.836847
0.833625
1.34021
1.31185
1.26522
1.21103
1.15552
1.10196
1.05195
1.00624
0.965
0.928264
0.895926
0.867778
0.843677
0.823401
0.806789
0.793709
0.783998
0.777652
0.774429
1.28665
1.25651
1.20798
1.15251
1.09629
1.04238
0.9922
0.946423
0.905191
0.868479
0.836179
0.808075
0.784014
0.763768
0.747181
0.734133
0.724441
0.718103
0.714883
1.23594
1.20295
1.15148
1.09411
1.03683
0.982394
0.931984
0.886122
0.844895
0.808231
0.77599
0.747944
0.723939
0.703746
0.687202
0.674195
0.664528
0.658198
0.654988
1.18829
1.15118
1.09561
1.0357
0.977072
0.921978
0.871283
0.825328
0.784117
0.747517
0.715354
0.687386
0.663457
0.643337
0.626853
0.613893
0.604257
0.597939
0.594743
1.1439
1.10118
1.04022
0.977173
0.916941
0.861089
0.810077
0.764033
0.722854
0.686335
0.654268
0.626402
0.602571
0.582544
0.566133
0.553227
0.54363
0.537328
0.534149
1.10194
1.0529
0.985067
0.918368
0.856343
0.799682
0.748347
0.702226
0.661098
0.624682
0.592732
0.564995
0.541283
0.521365
0.505042
0.492198
0.482648
0.476366
0.473208
1.06543
1.00617
0.929858
0.859031
0.795172
0.737704
0.686066
0.639893
0.59884
0.562555
0.530749
0.503165
0.479593
0.459801
0.443581
0.430809
0.421313
0.415058
0.411923
932.292
930.658
927.343
922.359
915.696
907.339
897.268
885.46
871.879
856.485
839.222
820.016
798.771
775.352
749.573
721.158
689.701
654.615
614.824
568.194
509.484
434.393
312.564
835.845
834.169
830.769
825.649
818.792
810.171
799.749
787.479
773.301
757.138
738.888
718.421
695.568
670.1
641.716
610.001
574.388
534.081
487.94
434.377
370.327
295.926
193.522
745.938
744.241
740.801
735.617
728.666
719.913
709.313
696.808
682.322
665.762
647.009
625.913
602.282
575.873
546.376
513.39
476.398
434.733
387.525
333.683
271.348
201.802
110.998
662.658
660.967
657.545
652.388
645.471
636.756
626.197
613.734
599.293
582.78
564.083
543.061
519.547
493.331
464.163
431.74
395.698
355.609
310.978
261.273
205.65
145.756
70.7896
585.98
584.325
580.984
575.951
569.2
560.699
550.406
538.265
524.213
508.17
490.044
469.722
447.076
421.955
394.187
363.579
329.919
292.984
252.553
208.446
160.35
109.882
48.3047
515.763
514.173
510.972
506.151
499.69
491.561
481.731
470.155
456.784
441.558
424.409
405.259
384.02
360.6
334.896
306.807
276.234
243.094
207.328
168.937
127.851
85.4753
34.3783
451.757
450.256
447.243
442.71
436.639
429.011
419.8
408.976
396.504
382.344
366.452
348.782
329.283
307.906
284.604
259.339
232.086
202.839
171.626
138.521
103.553
67.8771
25.033
393.617
392.223
389.437
385.246
379.64
372.605
364.124
354.178
342.747
329.809
315.341
299.319
281.723
262.535
241.746
219.356
195.38
169.855
142.841
114.438
84.7041
54.5778
18.4059
340.925
339.653
337.116
333.303
328.208
321.823
314.139
305.146
294.835
283.198
270.228
255.919
240.27
223.286
204.977
185.367
164.491
142.401
119.17
94.894
69.6372
44.1616
13.5249
293.213
292.068
289.793
286.376
281.815
276.108
269.251
261.242
252.08
241.767
230.305
217.702
203.969
189.122
173.185
156.189
138.178
119.21
99.3557
78.7036
57.315
35.8051
9.85657
249.977
248.962
246.954
243.939
239.919
234.894
228.868
221.842
213.82
204.811
194.825
183.875
171.979
159.159
145.445
130.872
115.485
99.3382
82.4975
65.0424
47.0299
28.9575
7.05595
210.702
209.819
208.076
205.461
201.976
197.625
192.412
186.345
179.43
171.68
163.108
153.731
143.57
132.65
121.001
108.659
95.6681
82.0779
67.9456
53.3363
38.2963
23.2339
4.87879
174.882
174.126
172.64
170.413
167.447
163.747
159.32
154.175
148.32
141.769
134.537
126.641
118.104
108.951
99.2115
88.9216
78.1215
66.8566
55.1763
43.1318
30.7545
18.3772
3.17409
142.025
141.391
140.154
138.3
135.832
132.758
129.082
124.814
119.965
114.545
108.572
102.063
95.0398
87.5279
79.5564
71.1582
62.3696
53.2299
43.7804
34.0639
24.1064
14.1859
1.84102
111.736
111.221
110.223
108.728
106.739
104.26
101.3
97.8662
93.9676
89.616
84.8255
79.6135
74.0006
68.0117
61.6758
55.026
48.0984
40.9307
33.5587
26.0148
18.3085
10.6657
0.859879
83.0522
82.6427
81.8689
80.7136
79.176
77.2611
74.9739
72.3208
69.3095
65.9498
62.2533
58.2342
53.9101
49.3024
44.4375
39.3487
34.0785
28.681
23.2234
17.781
12.3891
7.23463
0.0860304
53.9251
53.6228
53.0612
52.2174
51.0953
49.698
48.0291
46.0929
43.8943
41.4398
38.737
35.7948
32.624
29.2377
25.6515
21.8861
17.9706
13.9515
9.911
5.99873
2.50318
0.267241
-1.6595
36.0819
35.8902
35.5809
35.1024
34.4674
33.6774
32.7347
31.6417
30.4011
29.016
27.4902
25.8274
24.0324
22.1097
20.0638
17.898
15.6138
13.2026
10.6201
7.72425
4.36671
1.62517
-1.61584
47.0371
47.0266
47.003
46.9706
46.9265
46.8711
46.8045
46.7267
46.6376
46.5368
46.4239
46.2984
46.1593
46.0053
45.8344
45.6426
45.4242
45.172
44.973
44.8994
44.2872
42.8089
27.878
-4.18114
-4.17804
-4.17608
-4.17306
-4.16906
-4.16407
-4.15809
-4.1511
-4.14306
-4.13395
-4.12377
-4.1125
-4.10016
-4.08679
-4.07245
-4.05731
-4.04163
-4.02575
-4.01021
-3.99721
-3.98682
-3.9732
-4.00473
-4.22458
-4.22338
-4.22129
-4.21828
-4.21426
-4.20918
-4.20303
-4.1958
-4.18747
-4.17801
-4.16738
-4.15554
-4.14246
-4.12813
-4.11253
-4.09565
-4.07749
-4.05795
-4.03714
-4.01596
-3.99082
-3.96345
-3.95921
-4.25422
-4.2531
-4.25092
-4.24766
-4.2433
-4.23783
-4.23121
-4.22341
-4.21442
-4.20418
-4.19266
-4.17978
-4.16549
-4.14972
-4.13238
-4.11334
-4.09246
-4.0695
-4.04428
-4.01646
-3.98486
-3.95072
-3.91852
-4.29056
-4.28947
-4.28726
-4.28389
-4.27935
-4.27366
-4.26678
-4.25869
-4.24933
-4.23867
-4.22663
-4.21317
-4.1982
-4.18165
-4.1634
-4.14332
-4.12123
-4.09692
-4.07016
-4.04057
-4.00763
-3.97161
-3.93259
-4.33148
-4.33037
-4.3281
-4.32468
-4.32009
-4.31431
-4.30731
-4.29906
-4.28953
-4.27867
-4.26642
-4.25272
-4.2375
-4.22067
-4.20212
-4.18172
-4.15931
-4.1347
-4.10768
-4.07795
-4.04521
-4.00933
-3.97047
-4.37725
-4.37612
-4.37384
-4.37043
-4.36586
-4.36011
-4.35314
-4.34492
-4.33543
-4.32462
-4.31246
-4.29889
-4.28383
-4.26722
-4.24896
-4.22896
-4.20709
-4.18322
-4.15719
-4.12885
-4.09801
-4.06461
-4.02876
-4.42775
-4.42665
-4.42445
-4.42112
-4.41664
-4.411
-4.40417
-4.39614
-4.38688
-4.37636
-4.36456
-4.35141
-4.33687
-4.32088
-4.30337
-4.28428
-4.26352
-4.24101
-4.21666
-4.19039
-4.16215
-4.13192
-4.09987
-4.48297
-4.4819
-4.4798
-4.4766
-4.47229
-4.46685
-4.46028
-4.45257
-4.44371
-4.43366
-4.42241
-4.40992
-4.39614
-4.38105
-4.36458
-4.34672
-4.3274
-4.30659
-4.28426
-4.26038
-4.23494
-4.20799
-4.17967
-4.5427
-4.54172
-4.53969
-4.53663
-4.53253
-4.52738
-4.52117
-4.5139
-4.50555
-4.49611
-4.48556
-4.47388
-4.46103
-4.44701
-4.43177
-4.41531
-4.3976
-4.37864
-4.35843
-4.33696
-4.31427
-4.29041
-4.2655
-4.6067
-4.60577
-4.60387
-4.60099
-4.59715
-4.59234
-4.58657
-4.5798
-4.57205
-4.56329
-4.55353
-4.54275
-4.53093
-4.51807
-4.50414
-4.48916
-4.47312
-4.45602
-4.43788
-4.41872
-4.39859
-4.37754
-4.35568
-4.67468
-4.67379
-4.67202
-4.66937
-4.66584
-4.66142
-4.6561
-4.64989
-4.64277
-4.63475
-4.62582
-4.61598
-4.60522
-4.59355
-4.58096
-4.56745
-4.55304
-4.53773
-4.52157
-4.50457
-4.48679
-4.46827
-4.44912
-4.74632
-4.74551
-4.7439
-4.74149
-4.73828
-4.73425
-4.72941
-4.72376
-4.7173
-4.71002
-4.70194
-4.69305
-4.68335
-4.67285
-4.66156
-4.64948
-4.63664
-4.62304
-4.60873
-4.59372
-4.57808
-4.56184
-4.54509
-4.8213
-4.82059
-4.81915
-4.81697
-4.81406
-4.81043
-4.80607
-4.80099
-4.79519
-4.78867
-4.78143
-4.77348
-4.76482
-4.75547
-4.74543
-4.73471
-4.72335
-4.71135
-4.69875
-4.68557
-4.67187
-4.65768
-4.64306
-4.89937
-4.89874
-4.89745
-4.8955
-4.8929
-4.88965
-4.88577
-4.88125
-4.87609
-4.87031
-4.86389
-4.85685
-4.8492
-4.84094
-4.83209
-4.82267
-4.81268
-4.80217
-4.79115
-4.77964
-4.7677
-4.75535
-4.74265
-4.98016
-4.97959
-4.97844
-4.97672
-4.97443
-4.97157
-4.96815
-4.96418
-4.95965
-4.95457
-4.94894
-4.94277
-4.93607
-4.92885
-4.92113
-4.91291
-4.90422
-4.89507
-4.88551
-4.87554
-4.8652
-4.85452
-4.84356
-5.06327
-5.06276
-5.06176
-5.06026
-5.05828
-5.05582
-5.05286
-5.04941
-5.04548
-5.04107
-5.03619
-5.03085
-5.02505
-5.01881
-5.01214
-5.00506
-4.99757
-4.98971
-4.98149
-4.97293
-4.96407
-4.95494
-4.94556
-5.14839
-5.14796
-5.14712
-5.14585
-5.14417
-5.14207
-5.13955
-5.13661
-5.13325
-5.12949
-5.12532
-5.12076
-5.11582
-5.1105
-5.10483
-5.09881
-5.09245
-5.08578
-5.07882
-5.07159
-5.0641
-5.05638
-5.04847
-5.2353
-5.23496
-5.23426
-5.23322
-5.23181
-5.23005
-5.22794
-5.22547
-5.22266
-5.21951
-5.21603
-5.21222
-5.20809
-5.20365
-5.19892
-5.1939
-5.18862
-5.18307
-5.17729
-5.17129
-5.16508
-5.15869
-5.15214
-5.32377
-5.32349
-5.32293
-5.32208
-5.32093
-5.31949
-5.31776
-5.31575
-5.31346
-5.3109
-5.30806
-5.30496
-5.30161
-5.29801
-5.29418
-5.29012
-5.28584
-5.28137
-5.2767
-5.27186
-5.26685
-5.2617
-5.25642
-5.41344
-5.41322
-5.41279
-5.41211
-5.41121
-5.41008
-5.40873
-5.40716
-5.40537
-5.40336
-5.40115
-5.39874
-5.39614
-5.39335
-5.39037
-5.38723
-5.38392
-5.38045
-5.37685
-5.37311
-5.36924
-5.36527
-5.3612
-5.50398
-5.50382
-5.5035
-5.50301
-5.50235
-5.50152
-5.50054
-5.4994
-5.4981
-5.49665
-5.49505
-5.49331
-5.49143
-5.48942
-5.48728
-5.48501
-5.48263
-5.48014
-5.47756
-5.47487
-5.47211
-5.46927
-5.46636
-5.59509
-5.59499
-5.59478
-5.59447
-5.59406
-5.59355
-5.59294
-5.59222
-5.59141
-5.5905
-5.58951
-5.58842
-5.58725
-5.586
-5.58467
-5.58327
-5.5818
-5.58026
-5.57866
-5.57701
-5.57531
-5.57356
-5.57178
-5.68595
-5.68592
-5.68584
-5.68573
-5.68557
-5.68537
-5.68514
-5.68486
-5.68455
-5.6842
-5.68382
-5.6834
-5.68296
-5.68248
-5.68197
-5.68144
-5.68089
-5.68031
-5.67971
-5.67909
-5.67846
-5.67781
-5.67716
4.99036
1.78097
1.60489
1.34065
1.6744
1.22017
1.45787
1.19821
0.198685
0.907866
1.21724
0.99658
1.01936
0.826071
0.944948
0.787683
0.995548
0.702683
0.704933
0.582377
0.756943
0.531235
0.48569
0.379931
0.512613
0.339915
0.274428
0.179261
0.274676
0.136633
0.0654844
-0.0207427
0.0382375
-0.0743554
-0.143398
-0.220918
-0.19725
-0.28946
-0.352845
-0.421701
-0.43152
-0.506419
-0.562852
-0.623238
-0.665408
-0.723877
-0.77325
-0.825542
-0.900135
-0.941054
-0.98383
-1.02862
-1.13262
-1.15734
-1.19442
-1.23255
-1.3478
-1.37229
-1.40497
-1.43759
-1.61116
-1.58644
-1.61574
-1.64431
-1.95521
-1.79507
-1.82702
-1.85388
-2.37301
-2.03024
-2.04056
-2.06859
-0.782436
-2.44877
-2.24295
-2.29093
-4.24864
-3.18801
-2.55818
-2.5295
-3.95728
-3.33557
-2.89046
-2.76161
-3.82768
-3.4183
-3.12098
-2.97108
-3.8271
-3.5382
-3.30667
-3.16031
-3.87249
-3.65673
-3.46933
-3.3337
-3.94167
-3.77171
-3.61687
-3.49457
-4.02376
-3.88524
-3.75483
-3.64584
-4.11338
-3.99768
-3.8865
-3.78983
-4.20775
-4.10949
-4.01385
-3.92831
-4.30531
-4.22098
-4.13815
-4.06258
-4.40517
-4.33233
-4.26034
-4.19364
-4.50675
-4.44363
-4.38098
-4.32223
-4.60967
-4.55497
-4.50047
-4.44888
-4.71368
-4.66637
-4.6191
-4.57401
-4.81858
-4.77787
-4.73709
-4.69796
-4.92422
-4.88947
-4.85461
-4.82099
-5.03047
-5.00119
-4.97176
-4.94329
-5.13724
-5.11302
-5.08865
-5.06501
-5.24443
-5.22496
-5.20535
-5.18629
-5.35196
-5.33698
-5.3219
-5.30724
-5.45976
-5.44908
-5.43836
-5.42794
-5.56774
-5.56124
-5.55475
-5.54847
-5.67568
-5.67335
-5.67106
-5.6689
1.04394
0.933423
0.842564
0.765096
0.698464
0.639821
0.587781
0.541586
0.500698
0.464668
0.433137
0.405828
0.38251
0.362939
0.346905
0.334265
0.324872
0.31867
0.315575
0.945042
0.81218
0.713521
0.631889
0.562997
0.503429
0.451238
0.405288
0.364833
0.329315
0.298306
0.271495
0.248626
0.229444
0.213731
0.201338
0.19213
0.186043
0.18301
0.800265
0.673186
0.574062
0.492044
0.422863
0.363397
0.311645
0.266322
0.226571
0.191769
0.161449
0.135273
0.112963
0.0942589
0.0789373
0.0668466
0.0578643
0.051922
0.048962
0.634409
0.519738
0.425167
0.345584
0.277866
0.219562
0.168903
0.124636
0.0858987
0.0520452
0.0225951
-0.00280429
-0.024442
-0.0425791
-0.0574373
-0.069169
-0.0778859
-0.0836547
-0.0865281
0.457373
0.355941
0.268382
0.193066
0.128168
0.0719568
0.0230187
-0.0197531
-0.0571558
-0.0898187
-0.118213
-0.142691
-0.163542
-0.181023
-0.195347
-0.206664
-0.215075
-0.220642
-0.223413
0.274412
0.185034
0.10529
0.0352732
-0.0258657
-0.079239
-0.125903
-0.166764
-0.202523
-0.233759
-0.260915
-0.284328
-0.304279
-0.321015
-0.334737
-0.345584
-0.353647
-0.358985
-0.361641
0.0880208
0.00915
-0.0627704
-0.126994
-0.183774
-0.233751
-0.277681
-0.316267
-0.350099
-0.379687
-0.40543
-0.427641
-0.446584
-0.462489
-0.475541
-0.485866
-0.493542
-0.498624
-0.501151
-0.100695
-0.170365
-0.234764
-0.293018
-0.345077
-0.39126
-0.432089
-0.468091
-0.499747
-0.527487
-0.55166
-0.572543
-0.590376
-0.60537
-0.617688
-0.627439
-0.634692
-0.639494
-0.641881
-0.291241
-0.35267
-0.409916
-0.46219
-0.50932
-0.551432
-0.588877
-0.622042
-0.65131
-0.677028
-0.699489
-0.718931
-0.735564
-0.749572
-0.761097
-0.770228
-0.777024
-0.781524
-0.783761
-0.483358
-0.537222
-0.587643
-0.633997
-0.67608
-0.713932
-0.747779
-0.777908
-0.80461
-0.82816
-0.848789
-0.866691
-0.882044
-0.895002
-0.90568
-0.914151
-0.92046
-0.92464
-0.926719
-0.676862
-0.723636
-0.767494
-0.807997
-0.84497
-0.878432
-0.908526
-0.935463
-0.959461
-0.980722
-0.999418
-1.0157
-1.02971
-1.04156
-1.05135
-1.05912
-1.06492
-1.06876
-1.07068
-0.871613
-0.911628
-0.949112
-0.98381
-1.01564
-1.04462
-1.07085
-1.09448
-1.11566
-1.13454
-1.15123
-1.16582
-1.17843
-1.18913
-1.19799
-1.20505
-1.21031
-1.21381
-1.21555
-1.06754
-1.101
-1.13221
-1.16112
-1.18775
-1.21218
-1.23447
-1.25471
-1.27301
-1.28944
-1.30406
-1.31692
-1.32809
-1.33761
-1.34552
-1.35183
-1.35656
-1.35969
-1.36126
-1.26464
-1.29165
-1.31657
-1.33963
-1.36102
-1.38083
-1.39912
-1.41593
-1.4313
-1.44524
-1.45775
-1.46885
-1.47856
-1.48688
-1.49382
-1.49938
-1.50355
-1.50633
-1.50771
-1.46303
-1.48348
-1.50198
-1.51908
-1.53513
-1.55027
-1.56452
-1.57788
-1.5903
-1.60174
-1.61214
-1.62147
-1.6297
-1.63682
-1.64279
-1.6476
-1.65122
-1.65363
-1.65483
-1.66292
-1.67645
-1.6882
-1.69915
-1.70977
-1.7202
-1.73041
-1.74032
-1.74981
-1.75876
-1.76706
-1.77463
-1.7814
-1.78732
-1.79233
-1.79639
-1.79945
-1.8015
-1.80253
-1.86473
-1.87048
-1.87497
-1.87952
-1.8846
-1.8903
-1.8965
-1.903
-1.9096
-1.9161
-1.92234
-1.92818
-1.93352
-1.93826
-1.94232
-1.94564
-1.94817
-1.94986
-1.95071
-2.06895
-2.06546
-2.06193
-2.05975
-2.05923
-2.06024
-2.06248
-2.06566
-2.06945
-2.07358
-2.07782
-2.08199
-2.08594
-2.08953
-2.09268
-2.09528
-2.09728
-2.09863
-2.09931
-2.27579
-2.2609
-2.24849
-2.23934
-2.23322
-2.22963
-2.22806
-2.22806
-2.22915
-2.23101
-2.23334
-2.23591
-2.23852
-2.24103
-2.24328
-2.2452
-2.24669
-2.24771
-2.24823
-2.48505
-2.45568
-2.43375
-2.41763
-2.40608
-2.39812
-2.39295
-2.38993
-2.38849
-2.38822
-2.38875
-2.38981
-2.39117
-2.39263
-2.39406
-2.39532
-2.39633
-2.39704
-2.3974
-2.69081
-2.64744
-2.61647
-2.59385
-2.5773
-2.56532
-2.55685
-2.55106
-2.54729
-2.54505
-2.54391
-2.54357
-2.54376
-2.54426
-2.5449
-2.54555
-2.54612
-2.54653
-2.54675
-2.88676
-2.83357
-2.79538
-2.76727
-2.74639
-2.7309
-2.7195
-2.71123
-2.70537
-2.70134
-2.6987
-2.69708
-2.6962
-2.69581
-2.69574
-2.69583
-2.69598
-2.69612
-2.6962
-3.07132
-3.01269
-2.96957
-2.93731
-2.91296
-2.89455
-2.88066
-2.87027
-2.86258
-2.85698
-2.853
-2.85024
-2.8484
-2.84721
-2.84649
-2.84607
-2.84585
-2.84574
-2.8457
-3.24525
-3.18457
-3.13867
-3.10363
-3.07674
-3.05605
-3.04016
-3.02801
-3.01878
-3.01185
-3.00672
-3.00297
-3.00028
-2.99839
-2.99709
-2.99622
-2.99566
-2.99534
-2.99519
-3.40986
-3.34956
-3.30267
-3.26612
-3.23758
-3.21528
-3.19788
-3.18436
-3.1739
-3.16587
-3.15977
-3.15518
-3.15177
-3.14928
-3.14748
-3.14622
-3.14537
-3.14485
-3.14461
-3.56658
-3.5083
-3.46181
-3.42483
-3.39547
-3.37218
-3.35376
-3.33924
-3.32785
-3.31897
-3.3121
-3.30683
-3.30283
-3.29983
-3.29761
-3.29602
-3.29493
-3.29425
-3.29392
-3.71678
-3.66157
-3.61649
-3.57996
-3.55048
-3.52678
-3.50779
-3.49263
-3.4806
-3.47111
-3.46366
-3.45787
-3.4534
-3.45
-3.44745
-3.44558
-3.44429
-3.44348
-3.44309
-3.86167
-3.81012
-3.76717
-3.73175
-3.70275
-3.67913
-3.65998
-3.64454
-3.63215
-3.62227
-3.61444
-3.60827
-3.60347
-3.59976
-3.59695
-3.59488
-3.59343
-3.59252
-3.59208
-4.00226
-3.95467
-3.91432
-3.88052
-3.85247
-3.82936
-3.81042
-3.795
-3.78251
-3.77245
-3.76441
-3.75802
-3.753
-3.74909
-3.74611
-3.74389
-3.74233
-3.74134
-3.74086
-4.13937
-4.09585
-4.05839
-4.02659
-3.99987
-3.9776
-3.95919
-3.94406
-3.9317
-3.92167
-3.91359
-3.90712
-3.902
-3.89798
-3.8949
-3.89259
-3.89096
-3.88992
-3.88942
-4.27368
-4.23423
-4.19982
-4.17026
-4.14515
-4.12403
-4.1064
-4.09179
-4.07978
-4.06996
-4.06199
-4.05558
-4.05046
-4.04643
-4.04331
-4.04098
-4.03932
-4.03826
-4.03774
-4.40572
-4.37026
-4.33899
-4.31183
-4.28855
-4.26879
-4.25217
-4.2383
-4.22681
-4.21737
-4.20965
-4.20341
-4.1984
-4.19444
-4.19136
-4.18905
-4.1874
-4.18634
-4.18583
-4.53593
-4.50434
-4.47622
-4.45159
-4.43029
-4.41207
-4.39664
-4.38368
-4.37288
-4.36394
-4.35661
-4.35065
-4.34584
-4.34202
-4.33905
-4.3368
-4.3352
-4.33417
-4.33367
-4.66465
-4.63681
-4.61184
-4.58978
-4.57058
-4.55404
-4.53994
-4.52803
-4.51805
-4.50975
-4.50292
-4.49733
-4.49281
-4.48921
-4.48639
-4.48426
-4.48274
-4.48176
-4.48128
-4.79219
-4.76796
-4.74608
-4.72664
-4.70961
-4.69485
-4.6822
-4.67146
-4.66242
-4.65487
-4.64862
-4.6435
-4.63934
-4.63602
-4.63341
-4.63144
-4.63002
-4.62911
-4.62867
-4.91876
-4.89802
-4.8792
-4.86238
-4.84756
-4.83466
-4.82355
-4.81408
-4.80607
-4.79937
-4.79379
-4.78921
-4.78547
-4.78248
-4.78014
-4.77835
-4.77707
-4.77625
-4.77585
-5.04456
-5.02721
-5.01138
-4.99718
-4.98462
-4.97363
-4.96414
-4.95601
-4.94911
-4.94332
-4.93849
-4.9345
-4.93126
-4.92865
-4.92659
-4.92503
-4.92391
-4.92319
-4.92284
-5.16976
-5.15569
-5.14282
-5.13123
-5.12093
-5.1119
-5.10407
-5.09735
-5.09163
-5.08681
-5.08278
-5.07945
-5.07673
-5.07454
-5.07282
-5.07151
-5.07056
-5.06995
-5.06966
-5.29449
-5.28363
-5.27366
-5.26467
-5.25666
-5.24961
-5.24349
-5.23822
-5.23372
-5.22992
-5.22675
-5.22411
-5.22196
-5.22022
-5.21885
-5.21781
-5.21706
-5.21658
-5.21634
-5.41888
-5.41116
-5.40407
-5.39766
-5.39194
-5.3869
-5.3825
-5.37872
-5.37548
-5.37274
-5.37045
-5.36854
-5.36698
-5.36573
-5.36474
-5.36398
-5.36343
-5.36308
-5.36291
-5.54304
-5.53842
-5.53418
-5.53034
-5.52691
-5.52388
-5.52124
-5.51896
-5.517
-5.51535
-5.51396
-5.51281
-5.51187
-5.51111
-5.51051
-5.51005
-5.50972
-5.5095
-5.5094
-5.66707
-5.66553
-5.66412
-5.66284
-5.6617
-5.66069
-5.65981
-5.65904
-5.65839
-5.65784
-5.65737
-5.65699
-5.65667
-5.65641
-5.65621
-5.65605
-5.65594
-5.65587
-5.65584
)
;

boundaryField
{
    leftWall
    {
        type            calculated;
        value           nonuniform List<scalar> 
50
(
1383.67
1326.09
1269.78
1214.76
1161.05
1108.66
1057.6
1007.88
932.292
835.845
745.938
662.658
585.98
515.763
451.757
393.617
340.925
293.213
249.977
210.702
174.882
142.025
111.736
83.0522
53.9251
36.0819
47.0371
-4.18114
-4.22458
-4.25422
-4.29056
-4.33148
-4.37725
-4.42775
-4.48297
-4.5427
-4.6067
-4.67468
-4.74632
-4.8213
-4.89937
-4.98016
-5.06327
-5.14839
-5.2353
-5.32377
-5.41344
-5.50398
-5.59509
-5.68595
)
;
    }
    rightWall
    {
        type            calculated;
        value           nonuniform List<scalar> 
50
(
0.833625
0.774429
0.714883
0.654988
0.594743
0.534149
0.473208
0.411923
0.315575
0.18301
0.048962
-0.0865281
-0.223413
-0.361641
-0.501151
-0.641881
-0.783761
-0.926719
-1.07068
-1.21555
-1.36126
-1.50771
-1.65483
-1.80253
-1.95071
-2.09931
-2.24823
-2.3974
-2.54675
-2.6962
-2.8457
-2.99519
-3.14461
-3.29392
-3.44309
-3.59208
-3.74086
-3.88942
-4.03774
-4.18583
-4.33367
-4.48128
-4.62867
-4.77585
-4.92284
-5.06966
-5.21634
-5.36291
-5.5094
-5.65584
)
;
    }
    lowerWall
    {
        type            calculated;
        value           nonuniform List<scalar> 
62
(
1413.1
1411.62
1408.64
1404.17
1398.25
1390.89
1382.15
1372.08
1360.73
1348.2
1334.61
1320.08
1304.81
1289
1272.94
1256.92
1241.33
1226.59
1213.19
1201.62
1192.4
1185.96
1182.67
1153.24
1091.12
1025.28
955.268
879.965
797.336
701.725
590.161
25.9697
1.93336
1.67305
1.40357
1.39647
1.34021
1.28665
1.23594
1.18829
1.1439
1.10194
1.06543
1.4259
1.3984
1.35269
1.29913
1.24399
1.19061
1.14068
1.095
1.05376
1.01701
0.984656
0.956484
0.932364
0.912074
0.89545
0.882352
0.872635
0.866276
0.863054
)
;
    }
    atmosphere
    {
        type            calculated;
        value           nonuniform List<scalar> 
46
(
-5.73101
-5.73104
-5.73103
-5.73101
-5.73099
-5.73096
-5.73092
-5.73087
-5.73082
-5.73077
-5.7307
-5.73064
-5.73056
-5.73049
-5.73041
-5.73033
-5.73024
-5.73016
-5.73007
-5.72998
-5.7299
-5.72982
-5.72974
-5.72957
-5.72934
-5.72918
-5.72908
-5.72904
-5.72904
-5.72904
-5.72904
-5.72904
-5.72904
-5.72904
-5.72904
-5.72904
-5.72904
-5.72904
-5.72904
-5.72904
-5.72904
-5.72904
-5.72904
-5.72904
-5.72904
-5.72904
)
;
    }
    defaultFaces
    {
        type            empty;
    }
}


// ************************************************************************* //
