/*--------------------------------*- C++ -*----------------------------------*\
| =========                 |                                                 |
| \\      /  F ield         | OpenFOAM: The Open Source CFD Toolbox           |
|  \\    /   O peration     | Version:  2206                                  |
|   \\  /    A nd           | Website:  www.openfoam.com                      |
|    \\/     M anipulation  |                                                 |
\*---------------------------------------------------------------------------*/
FoamFile
{
    version     2.0;
    format      ascii;
    arch        "LSB;label=32;scalar=64";
    class       volScalarField;
    location    "0.025";
    object      p_rgh;
}
// * * * * * * * * * * * * * * * * * * * * * * * * * * * * * * * * * * * * * //

dimensions      [1 -1 -2 0 0 0 0];

internalField   nonuniform List<scalar> 
2268
(
1413.1
1411.62
1408.64
1404.17
1398.25
1390.89
1382.15
1372.08
1360.73
1348.2
1334.61
1320.08
1304.81
1289
1272.94
1256.92
1241.33
1226.59
1213.19
1201.62
1192.4
1185.96
1182.67
1414.37
1412.89
1409.89
1405.41
1399.46
1392.08
1383.29
1373.16
1361.74
1349.12
1335.4
1320.73
1305.27
1289.23
1272.86
1256.49
1240.49
1225.3
1211.41
1199.36
1189.68
1182.9
1179.4
1416.93
1415.43
1412.41
1407.9
1401.9
1394.45
1385.58
1375.33
1363.77
1350.96
1337.02
1322.05
1306.22
1289.72
1272.8
1255.75
1238.95
1222.83
1207.91
1194.77
1184.06
1176.42
1172.43
1420.77
1419.26
1416.21
1411.65
1405.58
1398.04
1389.04
1378.63
1366.86
1353.79
1339.5
1324.1
1307.73
1290.56
1272.81
1254.75
1236.73
1219.18
1202.63
1187.75
1175.31
1166.18
1161.27
1425.92
1424.39
1421.3
1416.68
1410.52
1402.86
1393.7
1383.09
1371.05
1357.64
1342.92
1326.98
1309.92
1291.88
1273.04
1253.64
1233.98
1214.45
1195.61
1178.16
1163.03
1151.43
1144.83
1432.38
1430.83
1427.7
1423
1416.75
1408.94
1399.6
1388.75
1376.4
1362.6
1347.37
1330.79
1312.91
1293.83
1273.68
1252.64
1230.93
1208.87
1186.94
1165.87
1146.69
1130.99
1121.06
1440.18
1438.61
1435.43
1430.65
1424.28
1416.32
1406.79
1395.67
1382.99
1368.75
1352.97
1335.67
1316.88
1296.64
1275.01
1252.07
1227.95
1202.77
1176.87
1150.83
1125.56
1102.75
1084.31
1449.32
1447.72
1444.49
1439.63
1433.15
1425.03
1415.28
1403.9
1390.86
1376.17
1359.81
1341.77
1322.02
1300.56
1277.34
1252.35
1225.55
1196.85
1166.11
1133.6
1099.69
1066.3
1031.6
1.4259
1.3984
1.35269
1.29913
1.24399
1.19061
1.14068
1.095
1.05376
1.01701
0.984656
0.956484
0.932364
0.912074
0.89545
0.882352
0.872635
0.866276
0.863054
1.42849
1.40014
1.35351
1.29932
1.24381
1.19025
1.14024
1.09452
1.05329
1.01655
0.984214
0.956066
0.931966
0.911689
0.895077
0.881997
0.872286
0.86594
0.862717
1.4338
1.40366
1.35513
1.29966
1.24344
1.18953
1.13935
1.09357
1.05234
1.01563
0.983326
0.955221
0.931161
0.910915
0.894328
0.88128
0.871588
0.86525
0.86203
1.44194
1.40896
1.35748
1.30011
1.24283
1.1884
1.13799
1.09213
1.0509
1.01424
0.981995
0.953949
0.929945
0.909751
0.893207
0.880201
0.870534
0.864204
0.860993
1.45316
1.41604
1.36047
1.30057
1.24194
1.18684
1.13615
1.09019
1.04898
1.01238
0.980218
0.95225
0.928322
0.908202
0.891717
0.878757
0.869122
0.862804
0.859607
1.46762
1.42491
1.36394
1.3009
1.24066
1.18481
1.1338
1.08776
1.04658
1.01006
0.977991
0.950125
0.926294
0.906267
0.889856
0.87695
0.867353
0.861051
0.857872
1.48452
1.43548
1.36765
1.30095
1.23893
1.18226
1.13093
1.08481
1.04368
1.00726
0.975314
0.947577
0.923865
0.903947
0.887624
0.87478
0.86523
0.858948
0.85579
1.50708
1.44762
1.3713
1.30047
1.23661
1.17914
1.12751
1.08133
1.04028
1.004
0.97219
0.944605
0.921034
0.901241
0.885021
0.872249
0.862754
0.856498
0.853363
1465.76
1464.13
1460.81
1455.83
1449.16
1440.81
1430.74
1418.93
1405.35
1389.95
1372.69
1353.48
1332.24
1308.82
1283.04
1254.63
1223.17
1188.08
1148.29
1101.66
1042.95
967.86
846.031
1494.51
1492.83
1489.43
1484.31
1477.45
1468.83
1458.41
1446.14
1431.96
1415.8
1397.55
1377.08
1354.23
1328.76
1300.38
1268.66
1233.05
1192.74
1146.6
1093.04
1028.99
954.587
852.183
1529.79
1528.1
1524.66
1519.47
1512.52
1503.77
1493.17
1480.66
1466.18
1449.62
1430.87
1409.77
1386.14
1359.73
1330.23
1297.25
1260.25
1218.59
1171.38
1117.54
1055.2
985.658
894.855
1571.71
1570.02
1566.6
1561.44
1554.52
1545.81
1535.25
1522.79
1508.34
1491.83
1473.13
1452.11
1428.6
1402.38
1373.21
1340.79
1304.75
1264.66
1220.03
1170.32
1114.7
1054.81
979.841
1620.22
1618.57
1615.23
1610.2
1603.45
1594.94
1584.65
1572.51
1558.46
1542.42
1524.29
1503.97
1481.32
1456.2
1428.43
1397.82
1364.16
1327.23
1286.8
1242.69
1194.6
1144.13
1082.55
1675.2
1673.61
1670.41
1665.59
1659.13
1651
1641.17
1629.6
1616.22
1601
1583.85
1564.7
1543.46
1520.04
1494.34
1466.25
1435.67
1402.53
1366.77
1328.38
1287.29
1244.92
1193.82
1736.39
1734.89
1731.88
1727.34
1721.27
1713.64
1704.43
1693.61
1681.14
1666.98
1651.09
1633.42
1613.92
1592.54
1569.24
1543.97
1516.72
1487.47
1456.26
1423.16
1388.19
1352.51
1309.67
1803.45
1802.05
1799.27
1795.07
1789.47
1782.43
1773.95
1764.01
1752.58
1739.64
1725.17
1709.15
1691.55
1672.36
1651.57
1629.18
1605.21
1579.68
1552.67
1524.27
1494.53
1464.41
1428.24
1875.95
1874.68
1872.14
1868.33
1863.23
1856.85
1849.16
1840.17
1829.86
1818.22
1805.25
1790.94
1775.29
1758.31
1740
1720.39
1699.51
1677.43
1654.19
1629.92
1604.66
1579.18
1548.55
1953.43
1952.29
1950.01
1946.59
1942.03
1936.33
1929.47
1921.46
1912.3
1901.98
1890.52
1877.92
1864.19
1849.34
1833.4
1816.41
1798.4
1779.43
1759.57
1738.92
1717.53
1696.02
1670.07
2035.39
2034.37
2032.37
2029.35
2025.33
2020.31
2014.28
2007.25
1999.23
1990.22
1980.24
1969.29
1957.39
1944.57
1930.86
1916.28
1900.9
1884.75
1867.91
1850.46
1832.44
1814.37
1792.47
2121.31
2120.43
2118.68
2116.07
2112.58
2108.23
2103.02
2096.95
2090.04
2082.29
2073.71
2064.34
2054.18
2043.26
2031.61
2019.27
2006.27
1992.69
1978.55
1963.94
1948.9
1933.84
1915.49
2210.68
2209.93
2208.44
2206.21
2203.25
2199.55
2195.12
2189.98
2184.12
2177.57
2170.34
2162.44
2153.9
2144.75
2135.01
2124.72
2113.92
2102.66
2090.98
2078.93
2066.56
2054.18
2038.98
2303.02
2302.39
2301.15
2299.3
2296.83
2293.75
2290.08
2285.81
2280.96
2275.54
2269.57
2263.06
2256.04
2248.52
2240.55
2232.15
2223.37
2214.23
2204.78
2195.06
2185.1
2175.18
2162.84
2397.93
2397.41
2396.41
2394.92
2392.93
2390.45
2387.49
2384.06
2380.16
2375.81
2371.02
2365.8
2360.19
2354.2
2347.87
2341.22
2334.29
2327.12
2319.75
2312.2
2304.5
2296.86
2287.05
2494.43
2494.03
2493.25
2492.1
2490.56
2488.64
2486.36
2483.7
2480.69
2477.33
2473.64
2469.62
2465.29
2460.68
2455.82
2450.73
2445.46
2440.06
2434.6
2429.16
2423.77
2418.61
2411.46
2590.47
2590.16
2589.6
2588.76
2587.64
2586.24
2584.57
2582.63
2580.43
2577.97
2575.27
2572.33
2569.15
2565.76
2562.17
2558.41
2554.49
2550.46
2546.42
2542.5
2539
2536.74
2534.72
2697.13
2696.94
2696.62
2696.14
2695.5
2694.69
2693.74
2692.63
2691.37
2689.96
2688.41
2686.72
2684.89
2682.94
2680.85
2678.64
2676.31
2673.84
2671.19
2668.23
2664.7
2661.71
2652.33
2334.28
2333.57
2332.47
2330.88
2328.74
2326.05
2322.83
2319.06
2314.73
2309.84
2304.35
2298.24
2291.47
2283.97
2275.64
2266.34
2255.82
2244.06
2231.32
2222.43
2162.63
2081.56
1425.21
-1.26898
-1.26588
-1.26392
-1.2609
-1.2569
-1.25191
-1.24593
-1.23893
-1.23089
-1.22179
-1.21161
-1.20034
-1.188
-1.17462
-1.16029
-1.14515
-1.12947
-1.11359
-1.09805
-1.08504
-1.07465
-1.06101
-1.09217
-1.18722
-1.18602
-1.18393
-1.18092
-1.1769
-1.17182
-1.16567
-1.15844
-1.15011
-1.14065
-1.13002
-1.11818
-1.10511
-1.09077
-1.07517
-1.0583
-1.04013
-1.0206
-0.999782
-0.978606
-0.953466
-0.926088
-0.921794
-1.09167
-1.09055
-1.08837
-1.08511
-1.08075
-1.07528
-1.06866
-1.06086
-1.05187
-1.04163
-1.0301
-1.01723
-1.00294
-0.987168
-0.969824
-0.950792
-0.929907
-0.906946
-0.881729
-0.853904
-0.822308
-0.78817
-0.755965
-1.00281
-1.00172
-0.999514
-0.996143
-0.991605
-0.985911
-0.979037
-0.970944
-0.961588
-0.950919
-0.938886
-0.925424
-0.910458
-0.893901
-0.87565
-0.855568
-0.833481
-0.809175
-0.782417
-0.752821
-0.719879
-0.683861
-0.644845
-0.918541
-0.917425
-0.915157
-0.911735
-0.907148
-0.901365
-0.894365
-0.886119
-0.876588
-0.865725
-0.853477
-0.839779
-0.824557
-0.807724
-0.789177
-0.768781
-0.746372
-0.721762
-0.694734
-0.665013
-0.632268
-0.596385
-0.557525
-0.839112
-0.837987
-0.835706
-0.83229
-0.827728
-0.821979
-0.815007
-0.806787
-0.797292
-0.786488
-0.774327
-0.760752
-0.745694
-0.72908
-0.710824
-0.690824
-0.668956
-0.645082
-0.619053
-0.59071
-0.559878
-0.526475
-0.490628
-0.764418
-0.763318
-0.761118
-0.757792
-0.753313
-0.747671
-0.740844
-0.732811
-0.72355
-0.713033
-0.701225
-0.688079
-0.67354
-0.65755
-0.640044
-0.620951
-0.600191
-0.577677
-0.553326
-0.52706
-0.498816
-0.468594
-0.436539
-0.694443
-0.69338
-0.691271
-0.688075
-0.683762
-0.678323
-0.671755
-0.664048
-0.655184
-0.64514
-0.633888
-0.621395
-0.60762
-0.592522
-0.57606
-0.558191
-0.538875
-0.518068
-0.495735
-0.471853
-0.446415
-0.419466
-0.391143
-0.628984
-0.627997
-0.625975
-0.622912
-0.618812
-0.613661
-0.607452
-0.600177
-0.591829
-0.58239
-0.571841
-0.560158
-0.547315
-0.533286
-0.518051
-0.501587
-0.483882
-0.464924
-0.444709
-0.423244
-0.400551
-0.376689
-0.351779
-0.567782
-0.566855
-0.564951
-0.562074
-0.558234
-0.55343
-0.547651
-0.540889
-0.533133
-0.524378
-0.514615
-0.503831
-0.492015
-0.479151
-0.465231
-0.450247
-0.434202
-0.417101
-0.398961
-0.379807
-0.359674
-0.338626
-0.316765
-0.51057
-0.509677
-0.50791
-0.505266
-0.501732
-0.497307
-0.491992
-0.48578
-0.478666
-0.470644
-0.461714
-0.451872
-0.441115
-0.429441
-0.416848
-0.40334
-0.388927
-0.373626
-0.35746
-0.340463
-0.322679
-0.304166
-0.28501
-0.457022
-0.456208
-0.454599
-0.452189
-0.448974
-0.444945
-0.440104
-0.434453
-0.427992
-0.42072
-0.412638
-0.403746
-0.394048
-0.38355
-0.372257
-0.360179
-0.347333
-0.333738
-0.319423
-0.304421
-0.288775
-0.272538
-0.255782
-0.406802
-0.406092
-0.404653
-0.402473
-0.399566
-0.395934
-0.391577
-0.386496
-0.380694
-0.374172
-0.366934
-0.358982
-0.350325
-0.34097
-0.330929
-0.320216
-0.308849
-0.296851
-0.28425
-0.271077
-0.257372
-0.24318
-0.228561
-0.359682
-0.359051
-0.35776
-0.35581
-0.353205
-0.349958
-0.346074
-0.341555
-0.336401
-0.330615
-0.3242
-0.317162
-0.309509
-0.301251
-0.292401
-0.282975
-0.272993
-0.262477
-0.251453
-0.239952
-0.228007
-0.215658
-0.202955
-0.315276
-0.314704
-0.313552
-0.31183
-0.309539
-0.306683
-0.303266
-0.299291
-0.294761
-0.28968
-0.284052
-0.277884
-0.271186
-0.263966
-0.256239
-0.248021
-0.23933
-0.230188
-0.220619
-0.21065
-0.200311
-0.189637
-0.178669
-0.273185
-0.272677
-0.271676
-0.270183
-0.268203
-0.265735
-0.262777
-0.25933
-0.2554
-0.250992
-0.246113
-0.24077
-0.234973
-0.228733
-0.222061
-0.214974
-0.207489
-0.199626
-0.191405
-0.182852
-0.173992
-0.164855
-0.155476
-0.233114
-0.232685
-0.231842
-0.230579
-0.228897
-0.226795
-0.224272
-0.22133
-0.217974
-0.21421
-0.210044
-0.205486
-0.200543
-0.195228
-0.189552
-0.18353
-0.177176
-0.170508
-0.163546
-0.15631
-0.148822
-0.141107
-0.133192
-0.194835
-0.194489
-0.193793
-0.192747
-0.191344
-0.189584
-0.187469
-0.185004
-0.182194
-0.179043
-0.175558
-0.171746
-0.167617
-0.163181
-0.158449
-0.153433
-0.148147
-0.142605
-0.136823
-0.130819
-0.124611
-0.11822
-0.111666
-0.158101
-0.157829
-0.157266
-0.156412
-0.155265
-0.153825
-0.152098
-0.150088
-0.147797
-0.145231
-0.142396
-0.139298
-0.135946
-0.132348
-0.128515
-0.124455
-0.12018
-0.115702
-0.111035
-0.106191
-0.101187
-0.0960368
-0.0907589
-0.122577
-0.122365
-0.121926
-0.121252
-0.120348
-0.119219
-0.117868
-0.116296
-0.114508
-0.112506
-0.110296
-0.107885
-0.105279
-0.102486
-0.0995131
-0.0963676
-0.0930584
-0.0895949
-0.0859872
-0.0822463
-0.0783838
-0.0744115
-0.0703427
-0.0879265
-0.087768
-0.087446
-0.086952
-0.0862923
-0.0854709
-0.0844892
-0.0833481
-0.0820503
-0.0805994
-0.0790002
-0.0772577
-0.0753769
-0.0733631
-0.0712215
-0.068958
-0.066579
-0.0640913
-0.0615026
-0.0588207
-0.0560542
-0.0532117
-0.0503026
-0.0538375
-0.0537399
-0.0535346
-0.0532253
-0.0528139
-0.0523009
-0.051687
-0.0509732
-0.0501619
-0.049256
-0.0482588
-0.0471736
-0.0460036
-0.0447522
-0.043423
-0.0420199
-0.0405473
-0.0390096
-0.037412
-0.0357595
-0.0340576
-0.0323118
-0.0305282
-0.0195052
-0.0194748
-0.0193998
-0.0192837
-0.0191274
-0.018931
-0.0186947
-0.0184195
-0.0181069
-0.0177585
-0.0173759
-0.0169604
-0.0165135
-0.0160365
-0.015531
-0.014999
-0.0144424
-0.0138634
-0.0132643
-0.0126474
-0.012015
-0.0113697
-0.0107139
183.781
3.07966
2.18577
1.87686
148.633
2.47779
2.15119
1.85863
110.863
1.88596
2.01049
1.78086
97.4474
1.80684
1.85678
1.69685
89.1016
1.77549
1.74035
1.61666
82.3961
1.71493
1.64573
1.53939
76.5146
1.6404
1.55939
1.4639
71.0856
1.55692
1.47549
1.38909
65.9465
1.46757
1.39172
1.31411
61.0412
1.3753
1.30743
1.23852
56.3772
1.28198
1.22259
1.16217
52.0008
1.1887
1.13738
1.08506
48.008
1.09607
1.05198
1.00719
44.6516
1.0046
0.966581
0.92845
42.7775
0.914699
0.881215
0.848605
43.2194
0.82575
0.795647
0.767072
44.7333
0.742653
0.709565
0.6827
124.184
0.642424
0.621237
0.593188
190.431
0.54088
0.544017
0.496041
-1.32951
1.56176
0.382821
0.382661
-0.915221
-0.220454
0.147906
0.275746
-0.665078
-0.255668
0.0415723
0.191469
-0.539354
-0.250453
-0.0189283
0.127439
-0.459552
-0.243785
-0.0563914
0.0792406
-0.40353
-0.233577
-0.0787305
0.0435675
-0.360433
-0.22191
-0.0915047
0.0174926
-0.32486
-0.209152
-0.0979728
-0.0013057
-0.294028
-0.19577
-0.100128
-0.0145867
-0.266396
-0.182064
-0.0992336
-0.0236658
-0.241057
-0.168218
-0.0962352
-0.0295339
-0.217443
-0.154332
-0.091682
-0.0329227
-0.195177
-0.140472
-0.0859739
-0.03438
-0.173992
-0.12668
-0.0794087
-0.0343159
-0.153695
-0.112981
-0.0722056
-0.0330779
-0.134135
-0.0993914
-0.0645249
-0.0309121
-0.115194
-0.0859153
-0.0564868
-0.028013
-0.0967686
-0.0725511
-0.048183
-0.0245409
-0.0787667
-0.0592909
-0.0396836
-0.0206259
-0.0611041
-0.0461221
-0.0310431
-0.0163763
-0.0437039
-0.0330294
-0.0223044
-0.0118832
-0.0264902
-0.0199936
-0.0135013
-0.00722476
-0.00923852
-0.00690575
-0.00462173
-0.00245988
1.5775
1.46689
1.37603
1.29856
1.23193
1.17329
1.12125
1.07505
1.03417
0.998135
0.966604
0.939295
0.915977
0.896406
0.880372
0.867732
0.858339
0.852137
0.849042
1.60376
1.47084
1.37218
1.29055
1.22166
1.16209
1.1099
1.06395
1.02349
0.987977
0.956967
0.930157
0.907287
0.888106
0.872393
0.859999
0.850791
0.844704
0.841671
1.58414
1.45704
1.35792
1.2759
1.20672
1.14725
1.0955
1.05018
1.01043
0.975625
0.945305
0.919129
0.896819
0.878115
0.862793
0.850703
0.84172
0.835778
0.832818
1.54346
1.42879
1.33422
1.25463
1.18692
1.12861
1.07795
1.03369
0.994949
0.961096
0.931646
0.906246
0.884609
0.866472
0.851613
0.839882
0.831165
0.825396
0.822523
1.49162
1.39019
1.30263
1.22731
1.16241
1.1062
1.05726
1.01449
0.977089
0.944426
0.916032
0.891554
0.870703
0.853223
0.838898
0.827581
0.819171
0.813604
0.810832
1.43385
1.34447
1.26473
1.19471
1.13357
1.0802
1.03354
0.992675
0.956916
0.92568
0.898524
0.875112
0.855161
0.838425
0.824703
0.813856
0.805793
0.800455
0.797799
1.37266
1.29378
1.22186
1.15764
1.10086
1.05088
1.00695
0.968367
0.934535
0.904948
0.879204
0.856993
0.83805
0.822145
0.809093
0.798768
0.791092
0.78601
0.783483
1.30913
1.23946
1.17506
1.11681
1.06475
1.01857
0.97774
0.941737
0.910081
0.882341
0.858169
0.837286
0.819453
0.804459
0.792141
0.782389
0.775137
0.770335
0.767948
1.24378
1.18235
1.12511
1.07283
1.0257
0.983592
0.946147
0.912981
0.883713
0.857995
0.835534
0.816093
0.799459
0.785451
0.773927
0.764795
0.757999
0.753499
0.751262
1.17686
1.123
1.07257
1.02622
0.984138
0.946286
0.912439
0.88231
0.855607
0.832058
0.811429
0.793527
0.778173
0.765215
0.754538
0.746067
0.739758
0.735578
0.733499
1.10855
1.06178
1.01792
0.977416
0.940442
0.90698
0.876886
0.84995
0.825952
0.804691
0.785994
0.769713
0.755707
0.743854
0.734067
0.726292
0.720494
0.71665
0.714737
1.03899
0.998978
0.961495
0.926796
0.89497
0.865991
0.839761
0.81613
0.794944
0.776064
0.75938
0.744785
0.732179
0.721476
0.712614
0.705561
0.700293
0.696798
0.695057
0.968263
0.934797
0.903587
0.874686
0.848048
0.823621
0.801335
0.78109
0.762788
0.746358
0.731741
0.71888
0.707714
0.698192
0.690281
0.683969
0.679246
0.676107
0.674544
0.896353
0.869348
0.844423
0.821366
0.799979
0.780167
0.76188
0.745069
0.729698
0.715756
0.703242
0.692143
0.68244
0.674118
0.667173
0.661612
0.657442
0.654666
0.653281
0.823163
0.802706
0.784213
0.767115
0.751063
0.73592
0.721667
0.708313
0.695888
0.684449
0.674047
0.664719
0.656486
0.64937
0.643396
0.63859
0.634974
0.632561
0.631357
0.748463
0.734936
0.723184
0.712232
0.701613
0.691183
0.680974
0.671067
0.661577
0.652626
0.644324
0.636754
0.629982
0.624065
0.619055
0.614999
0.611933
0.609882
0.608857
0.671845
0.666097
0.661605
0.657061
0.651977
0.646275
0.640083
0.633583
0.626983
0.620479
0.614239
0.608396
0.603058
0.598317
0.594255
0.590936
0.588412
0.586716
0.585866
0.592829
0.596316
0.599841
0.602019
0.602548
0.601537
0.599292
0.596113
0.592325
0.588195
0.583954
0.579785
0.575838
0.572241
0.569098
0.566496
0.564498
0.563147
0.562467
0.511174
0.526069
0.53848
0.547627
0.553754
0.55734
0.558907
0.558911
0.557816
0.555957
0.553627
0.55106
0.548445
0.545944
0.543684
0.54177
0.540277
0.539257
0.53874
0.427113
0.456486
0.478416
0.494538
0.506087
0.514045
0.51921
0.522233
0.523669
0.523941
0.523409
0.522352
0.520995
0.51953
0.518107
0.516845
0.515832
0.515126
0.514764
0.346553
0.389918
0.420885
0.443509
0.460062
0.472033
0.480504
0.486297
0.490064
0.49231
0.493444
0.493788
0.493596
0.493099
0.492457
0.491805
0.49124
0.490828
0.490611
0.27579
0.328983
0.367175
0.395283
0.416161
0.431654
0.443054
0.451318
0.45718
0.461207
0.463852
0.46547
0.466354
0.466742
0.466816
0.466725
0.466573
0.466433
0.46635
0.21643
0.275054
0.318175
0.350436
0.374784
0.393201
0.407088
0.417481
0.425169
0.430763
0.434746
0.437504
0.439349
0.440535
0.44126
0.441678
0.441901
0.442005
0.442045
0.167688
0.228369
0.27427
0.309307
0.336203
0.35689
0.372781
0.384933
0.394157
0.401087
0.406225
0.409974
0.412662
0.414553
0.415854
0.416724
0.417281
0.417604
0.417753
0.128274
0.188577
0.235467
0.272014
0.300555
0.322855
0.340253
0.35378
0.364239
0.372265
0.378366
0.382953
0.386361
0.388858
0.390657
0.39192
0.392767
0.393282
0.393525
0.09675
0.155027
0.201518
0.238496
0.267862
0.291147
0.309568
0.32409
0.335481
0.344361
0.351231
0.356499
0.3605
0.363502
0.365718
0.367312
0.368405
0.369083
0.369406
0.0717422
0.126958
0.172033
0.208568
0.238048
0.26175
0.280739
0.295891
0.307921
0.317417
0.324861
0.330654
0.33512
0.338525
0.341078
0.34294
0.344234
0.345045
0.345435
0.0520474
0.103602
0.14655
0.181967
0.21097
0.234591
0.253736
0.269178
0.281567
0.291451
0.299283
0.305446
0.310252
0.313958
0.316766
0.318836
0.320286
0.321202
0.321643
0.0366558
0.0842457
0.124597
0.158391
0.18644
0.209557
0.228493
0.243918
0.256409
0.266463
0.274505
0.28089
0.285914
0.289822
0.292807
0.295023
0.296585
0.297577
0.298056
0.0247383
0.0682539
0.105715
0.13752
0.164242
0.186505
0.20492
0.220053
0.23241
0.242438
0.25052
0.256987
0.262113
0.266127
0.269213
0.271517
0.273148
0.274188
0.274691
0.0156253
0.0550756
0.0894802
0.119044
0.144153
0.165277
0.182905
0.197508
0.209523
0.219342
0.22731
0.233727
0.238845
0.242876
0.245991
0.248326
0.249986
0.251046
0.25156
0.00877872
0.0442411
0.075511
0.102663
0.125946
0.145705
0.162326
0.176195
0.187683
0.197131
0.204844
0.21109
0.216099
0.220062
0.223137
0.225451
0.227101
0.228158
0.22867
0.00376582
0.0353527
0.0634674
0.0881002
0.109401
0.127619
0.143051
0.156013
0.166815
0.175748
0.18308
0.189047
0.193852
0.19767
0.200643
0.202887
0.204491
0.20552
0.20602
0.00023268
0.0280739
0.0530501
0.0751018
0.0943104
0.11085
0.124949
0.136859
0.146838
0.155132
0.161971
0.167559
0.172078
0.17568
0.178494
0.180623
0.182148
0.183128
0.183604
-0.00210603
0.0221208
0.0439966
0.0634365
0.0804759
0.095234
0.107883
0.118623
0.127664
0.135211
0.141459
0.146584
0.150741
0.154065
0.156668
0.158642
0.160058
0.160969
0.161412
-0.00348305
0.0172528
0.0360765
0.0528947
0.0677138
0.0806134
0.0917215
0.101195
0.109201
0.115911
0.121484
0.12607
0.129801
0.132792
0.135139
0.136922
0.138203
0.139028
0.139428
-0.00409187
0.0132641
0.0290869
0.0432863
0.0558525
0.0668369
0.0763334
0.0844622
0.0913565
0.0971523
0.101981
0.105965
0.109214
0.111824
0.113876
0.115437
0.116559
0.117283
0.117634
-0.00409249
0.0099766
0.022847
0.0344378
0.0447314
0.0537601
0.0615912
0.0683151
0.0740343
0.0788551
0.0828815
0.086211
0.0889315
0.0911205
0.0928439
0.0941562
0.0951009
0.0957105
0.096006
-0.00363114
0.00723251
0.0171944
0.0261895
0.0341998
0.0412445
0.0473706
0.0526435
0.0571388
0.0609361
0.0641141
0.0667466
0.068901
0.0706368
0.0720049
0.0730477
0.0737989
0.0742839
0.0745188
-0.00282988
0.00489136
0.0119804
0.0183931
0.0241149
0.029157
0.0335502
0.0373386
0.040574
0.0433116
0.0456061
0.0475093
0.0490688
0.0503265
0.0513186
0.0520754
0.0526208
0.0529732
0.0531435
-0.00179472
0.00282552
0.00706726
0.0109085
0.0143405
0.0173691
0.0200115
0.0222931
0.0242441
0.0258969
0.0272836
0.028435
0.0293792
0.0301412
0.0307427
0.0312018
0.0315328
0.0317468
0.0318497
-0.000626488
0.000912701
0.00232246
0.00360069
0.0047441
0.0057543
0.00663673
0.00739955
0.00805253
0.00860623
0.00907122
0.00945762
0.00977476
0.0100309
0.0102332
0.0103878
0.0104992
0.0105713
0.0106057
)
;

boundaryField
{
    leftWall
    {
        type            fixedFluxPressure;
        gradient        uniform 0;
        value           nonuniform List<scalar> 
50
(
1413.1
1414.37
1416.93
1420.77
1425.92
1432.38
1440.18
1449.32
1465.76
1494.51
1529.79
1571.71
1620.22
1675.2
1736.39
1803.45
1875.95
1953.43
2035.39
2121.31
2210.68
2303.02
2397.93
2494.43
2590.47
2697.13
2334.28
-1.26898
-1.18722
-1.09167
-1.00281
-0.918541
-0.839112
-0.764418
-0.694443
-0.628984
-0.567782
-0.51057
-0.457022
-0.406802
-0.359682
-0.315276
-0.273185
-0.233114
-0.194835
-0.158101
-0.122577
-0.0879265
-0.0538375
-0.0195052
)
;
    }
    rightWall
    {
        type            fixedFluxPressure;
        gradient        uniform 0;
        value           nonuniform List<scalar> 
50
(
0.863054
0.862717
0.86203
0.860993
0.859607
0.857872
0.85579
0.853363
0.849042
0.841671
0.832818
0.822523
0.810832
0.797799
0.783483
0.767948
0.751262
0.733499
0.714737
0.695057
0.674544
0.653281
0.631357
0.608857
0.585866
0.562467
0.53874
0.514764
0.490611
0.46635
0.442045
0.417753
0.393525
0.369406
0.345435
0.321643
0.298056
0.274691
0.25156
0.22867
0.20602
0.183604
0.161412
0.139428
0.117634
0.096006
0.0745188
0.0531435
0.0318497
0.0106057
)
;
    }
    lowerWall
    {
        type            fixedFluxPressure;
        gradient        uniform 0;
        value           nonuniform List<scalar> 
62
(
1413.1
1411.62
1408.64
1404.17
1398.25
1390.89
1382.15
1372.08
1360.73
1348.2
1334.61
1320.08
1304.81
1289
1272.94
1256.92
1241.33
1226.59
1213.19
1201.62
1192.4
1185.96
1182.67
1182.67
1179.4
1172.43
1161.27
1144.83
1121.06
1084.31
1031.6
183.781
3.07966
2.18577
1.87686
1.4259
1.42849
1.4338
1.44194
1.45316
1.46762
1.48452
1.50708
1.4259
1.3984
1.35269
1.29913
1.24399
1.19061
1.14068
1.095
1.05376
1.01701
0.984656
0.956484
0.932364
0.912074
0.89545
0.882352
0.872635
0.866276
0.863054
)
;
    }
    atmosphere
    {
        type            totalPressure;
        rho             rho;
        psi             none;
        gamma           1;
        p0              uniform 0;
        value           nonuniform List<scalar> 
46
(
-0.00197292
-0.00200485
-0.00199296
-0.00197455
-0.00194939
-0.00191751
-0.00187902
-0.00183409
-0.00178294
-0.0017259
-0.00166334
-0.0015957
-0.00152352
-0.00144736
-0.00136785
-0.00128567
-0.00120152
-0.00111612
-0.0010302
-0.000944488
-0.000859694
-0.000776507
-0.000695465
-0.00052733
-0.000302071
-0.00013725
-3.7957e-05
-1.66806e-06
0
0
0
0
0
0
0
0
0
0
0
0
0
0
0
0
0
0
)
;
    }
    defaultFaces
    {
        type            empty;
    }
}


// ************************************************************************* //
