/*--------------------------------*- C++ -*----------------------------------*\
| =========                 |                                                 |
| \\      /  F ield         | OpenFOAM: The Open Source CFD Toolbox           |
|  \\    /   O peration     | Version:  2206                                  |
|   \\  /    A nd           | Website:  www.openfoam.com                      |
|    \\/     M anipulation  |                                                 |
\*---------------------------------------------------------------------------*/
FoamFile
{
    version     2.0;
    format      ascii;
    arch        "LSB;label=32;scalar=64";
    class       volVectorField;
    location    "0.025";
    object      U;
}
// * * * * * * * * * * * * * * * * * * * * * * * * * * * * * * * * * * * * * //

dimensions      [0 1 -1 0 0 0 0];

internalField   nonuniform List<vector> 
2268
(
(0.00324583 -0.00306807 0)
(0.00974855 -0.0030823 0)
(0.0162373 -0.0030513 0)
(0.0226606 -0.00301943 0)
(0.0290021 -0.00297387 0)
(0.0352296 -0.00291119 0)
(0.0413024 -0.00282707 0)
(0.0471694 -0.00271586 0)
(0.0527656 -0.00257018 0)
(0.0580085 -0.0023807 0)
(0.0627935 -0.00213569 0)
(0.0669885 -0.00182071 0)
(0.070428 -0.0014184 0)
(0.0729069 -0.000908301 0)
(0.0741842 -0.000265294 0)
(0.0739465 0.000528761 0)
(0.0718491 0.00148307 0)
(0.0675707 0.0025908 0)
(0.0608071 0.00382685 0)
(0.0513528 0.00512436 0)
(0.039199 0.00636281 0)
(0.0246484 0.00736971 0)
(0.00843548 0.00794432 0)
(0.00325647 -0.00921035 0)
(0.00978422 -0.00925648 0)
(0.0162993 -0.00916468 0)
(0.0227521 -0.00907107 0)
(0.0291279 -0.0089373 0)
(0.0353967 -0.00875319 0)
(0.04152 -0.00850606 0)
(0.0474497 -0.00817908 0)
(0.0531243 -0.00775053 0)
(0.0584653 -0.00719267 0)
(0.063373 -0.00647064 0)
(0.0677203 -0.00554137 0)
(0.0713477 -0.00435299 0)
(0.074057 -0.00284517 0)
(0.0756041 -0.000951049 0)
(0.0757306 0.00138709 0)
(0.0740881 0.00423385 0)
(0.0702453 0.00758297 0)
(0.0638062 0.0113706 0)
(0.054434 0.0154078 0)
(0.0419738 0.0193292 0)
(0.0266256 0.022579 0)
(0.00916121 0.0244622 0)
(0.00327383 -0.0153823 0)
(0.00983791 -0.0154616 0)
(0.0163935 -0.0153122 0)
(0.0228931 -0.0151625 0)
(0.0293257 -0.0149487 0)
(0.0356651 -0.0146544 0)
(0.0418776 -0.014259 0)
(0.0479205 -0.0137354 0)
(0.0537392 -0.0130484 0)
(0.0592638 -0.012153 0)
(0.064404 -0.010992 0)
(0.0690436 -0.00949445 0)
(0.0730335 -0.00757359 0)
(0.0761826 -0.00512733 0)
(0.0782465 -0.00204379 0)
(0.0789441 0.00178533 0)
(0.077882 0.00650798 0)
(0.0745793 0.0121603 0)
(0.0685408 0.0186861 0)
(0.0592544 0.0258147 0)
(0.0463391 0.0329446 0)
(0.0297843 0.0390581 0)
(0.0103412 0.0427434 0)
(0.00329839 -0.021594 0)
(0.00991394 -0.0217106 0)
(0.0165269 -0.0215093 0)
(0.0230932 -0.0213131 0)
(0.0296069 -0.0210328 0)
(0.0360472 -0.0206465 0)
(0.042387 -0.020127 0)
(0.0485921 -0.0194384 0)
(0.054618 -0.0185334 0)
(0.0604071 -0.0173515 0)
(0.065884 -0.0158154 0)
(0.0709501 -0.0138273 0)
(0.0754748 -0.0112652 0)
(0.079284 -0.00798027 0)
(0.08214 -0.00379595 0)
(0.0837798 0.00149072 0)
(0.083779 0.0080176 0)
(0.0815544 0.0160218 0)
(0.076436 0.025527 0)
(0.0675928 0.0362704 0)
(0.0541868 0.047485 0)
(0.0356945 0.0576262 0)
(0.0126184 0.0641933 0)
(0.00332864 -0.0278575 0)
(0.0100075 -0.0280167 0)
(0.0166912 -0.027771 0)
(0.0233399 -0.0275408 0)
(0.0299538 -0.027212 0)
(0.0365192 -0.0267581 0)
(0.0430174 -0.0261469 0)
(0.0494246 -0.0253352 0)
(0.0557094 -0.0242665 0)
(0.0618305 -0.0228676 0)
(0.067733 -0.021044 0)
(0.0733427 -0.0186745 0)
(0.0785591 -0.0156045 0)
(0.0832425 -0.0116391 0)
(0.0872003 -0.00653665 0)
(0.0901146 -2.02335e-06 0)
(0.0916166 0.00821812 0)
(0.0911269 0.0185778 0)
(0.0876751 0.0313227 0)
(0.0800017 0.0463959 0)
(0.0665158 0.0630892 0)
(0.0456142 0.0794002 0)
(0.0166571 0.0912828 0)
(0.00336258 -0.0341806 0)
(0.0101125 -0.0343886 0)
(0.0168756 -0.0341075 0)
(0.0236171 -0.0338584 0)
(0.0303444 -0.0335025 0)
(0.0370515 -0.0330103 0)
(0.0437296 -0.032346 0)
(0.0503671 -0.031462 0)
(0.0569479 -0.0302955 0)
(0.0634504 -0.0287646 0)
(0.0698449 -0.0267626 0)
(0.0760893 -0.0241505 0)
(0.082123 -0.0207475 0)
(0.0878544 -0.016319 0)
(0.0931408 -0.0105621 0)
(0.0977326 -0.00309481 0)
(0.101343 0.0066012 0)
(0.103397 0.01907 0)
(0.102736 0.0351395 0)
(0.0976261 0.0552659 0)
(0.0853878 0.0793542 0)
(0.0624063 0.105599 0)
(0.0240815 0.129528 0)
(0.00339788 -0.0405592 0)
(0.010222 -0.0408222 0)
(0.0170681 -0.0405155 0)
(0.023907 -0.0402639 0)
(0.0307536 -0.0399043 0)
(0.0376105 -0.0394055 0)
(0.0444793 -0.0387307 0)
(0.0513614 -0.0378302 0)
(0.0582578 -0.0366389 0)
(0.0651688 -0.035071 0)
(0.0720935 -0.0330143 0)
(0.0790279 -0.0303207 0)
(0.0859619 -0.0267938 0)
(0.0928712 -0.0221716 0)
(0.0997026 -0.0161022 0)
(0.106343 -0.00811417 0)
(0.112581 0.00244553 0)
(0.118117 0.0163095 0)
(0.121903 0.0353205 0)
(0.121814 0.0607131 0)
(0.114087 0.0939063 0)
(0.0931246 0.134091 0)
(0.0400098 0.17785 0)
(0.00343275 -0.0470537 0)
(0.01033 -0.047379 0)
(0.0172584 -0.0470569 0)
(0.0241944 -0.04682 0)
(0.0311606 -0.0464813 0)
(0.0381681 -0.0460096 0)
(0.0452292 -0.0453689 0)
(0.0523588 -0.0445106 0)
(0.0595752 -0.0433712 0)
(0.0669015 -0.0418668 0)
(0.0743673 -0.0398873 0)
(0.0820104 -0.0372862 0)
(0.0898782 -0.0338665 0)
(0.0980268 -0.0293572 0)
(0.106512 -0.0233762 0)
(0.115369 -0.0153673 0)
(0.124559 -0.00449265 0)
(0.134541 0.0104875 0)
(0.144769 0.0314546 0)
(0.153139 0.0620452 0)
(0.154991 0.109081 0)
(0.143484 0.179779 0)
(0.0617974 0.309979 0)
(0.0185673 -0.00590608 0)
(0.048744 -0.00381861 0)
(0.0657721 -0.00174653 0)
(0.0722832 -0.00040868 0)
(0.0723757 0.000346068 0)
(0.0689957 0.000727512 0)
(0.0639604 0.00089744 0)
(0.0581924 0.000963419 0)
(0.0522375 0.000967161 0)
(0.0463383 0.000936303 0)
(0.040613 0.000903533 0)
(0.0351241 0.000871264 0)
(0.0298869 0.000828631 0)
(0.0248702 0.000789831 0)
(0.0200508 0.000763419 0)
(0.0154125 0.000739637 0)
(0.0109021 0.000721882 0)
(0.00649798 0.000703845 0)
(0.00216312 0.000699379 0)
(0.0194879 -0.0179979 0)
(0.0506528 -0.0115838 0)
(0.0676231 -0.00523825 0)
(0.0737941 -0.0011826 0)
(0.0736288 0.00107345 0)
(0.0700751 0.00222188 0)
(0.0648943 0.00273627 0)
(0.0590053 0.00291805 0)
(0.0529424 0.00293051 0)
(0.0469462 0.00285408 0)
(0.0411443 0.00274812 0)
(0.0355878 0.00263557 0)
(0.03028 0.00251061 0)
(0.0251973 0.00240061 0)
(0.0203197 0.00231893 0)
(0.0156288 0.00224163 0)
(0.0110618 0.00218119 0)
(0.00659398 0.00213881 0)
(0.00219372 0.00211992 0)
(0.0209864 -0.0307555 0)
(0.0534711 -0.0193705 0)
(0.0698616 -0.00852707 0)
(0.0751641 -0.00176893 0)
(0.0743408 0.00191553 0)
(0.0703876 0.00377852 0)
(0.064988 0.00460725 0)
(0.0589902 0.0048893 0)
(0.0528808 0.00490189 0)
(0.0468677 0.00478152 0)
(0.0410627 0.00459746 0)
(0.0355099 0.00439618 0)
(0.030211 0.00419372 0)
(0.0251428 0.00401454 0)
(0.0202768 0.00387204 0)
(0.0155948 0.0037431 0)
(0.0110397 0.00364121 0)
(0.00658183 0.0035798 0)
(0.00218918 0.00354433 0)
(0.023408 -0.0446255 0)
(0.0579283 -0.027169 0)
(0.0732727 -0.0114417 0)
(0.0771935 -0.00203902 0)
(0.0754099 0.00295863 0)
(0.070902 0.0054467 0)
(0.0651975 0.00653425 0)
(0.0590455 0.00689773 0)
(0.0528588 0.00689833 0)
(0.0468064 0.00671403 0)
(0.0409875 0.00644266 0)
(0.0354361 0.00615612 0)
(0.0301428 0.00588104 0)
(0.0250839 0.00562961 0)
(0.0202287 0.00541846 0)
(0.0155575 0.00524039 0)
(0.0110153 0.00510365 0)
(0.00656749 0.00501811 0)
(0.00218364 0.00496686 0)
(0.0269817 -0.0600429 0)
(0.0643214 -0.0348994 0)
(0.0779137 -0.0137652 0)
(0.0798467 -0.00184785 0)
(0.0767731 0.00427537 0)
(0.0715484 0.00726359 0)
(0.0654565 0.00854482 0)
(0.0591073 0.00894944 0)
(0.0528218 0.00890818 0)
(0.0467216 0.00864964 0)
(0.0408856 0.00829455 0)
(0.035336 0.00791905 0)
(0.0300504 0.00756207 0)
(0.0250029 0.00723748 0)
(0.0201623 0.00696139 0)
(0.0155069 0.00673568 0)
(0.0109809 0.00656309 0)
(0.00654605 0.006452 0)
(0.00217537 0.00638445 0)
(0.0317339 -0.0772226 0)
(0.0730318 -0.0423972 0)
(0.0838442 -0.0152182 0)
(0.083059 -0.00110033 0)
(0.078371 0.00593541 0)
(0.0722887 0.00926299 0)
(0.0657435 0.0106479 0)
(0.0591641 0.0110475 0)
(0.0527633 0.0109419 0)
(0.0466099 0.0105951 0)
(0.0407553 0.0101496 0)
(0.0352071 0.00968106 0)
(0.0299322 0.00923705 0)
(0.0248999 0.00883888 0)
(0.020078 0.00850047 0)
(0.015442 0.00822631 0)
(0.0109356 0.00801514 0)
(0.00651757 0.00787838 0)
(0.00216462 0.00779619 0)
(0.0392867 -0.101408 0)
(0.0845042 -0.0496816 0)
(0.0910844 -0.015455 0)
(0.0867239 0.000466274 0)
(0.0801422 0.00800051 0)
(0.0730787 0.0114683 0)
(0.0660346 0.0128554 0)
(0.0592043 0.0131977 0)
(0.0526773 0.0130044 0)
(0.0464671 0.0125533 0)
(0.0405941 0.0120054 0)
(0.0350485 0.0114395 0)
(0.0297876 0.0109073 0)
(0.0247749 0.0104347 0)
(0.0199755 0.0100335 0)
(0.0153622 0.00970927 0)
(0.010879 0.00945764 0)
(0.00648243 0.00929557 0)
(0.00215171 0.00920022 0)
(0.0795185 -0.134115 0)
(0.102433 -0.0549713 0)
(0.099677 -0.0138937 0)
(0.0906721 0.00297508 0)
(0.0819494 0.0105 0)
(0.0738654 0.013892 0)
(0.0663041 0.0151792 0)
(0.0592135 0.0154054 0)
(0.0525558 0.0150952 0)
(0.046287 0.0145248 0)
(0.0403965 0.0138628 0)
(0.0348553 0.0131949 0)
(0.0296113 0.0125736 0)
(0.0246219 0.0120247 0)
(0.0198487 0.0115588 0)
(0.0152617 0.011183 0)
(0.0108066 0.0108901 0)
(0.00643876 0.010702 0)
(0.00213648 0.0105946 0)
(0.00348083 -0.057264 0)
(0.0104779 -0.057698 0)
(0.0175189 -0.0573777 0)
(0.0245898 -0.0572044 0)
(0.0317235 -0.0569561 0)
(0.0389436 -0.0566051 0)
(0.0462779 -0.0561219 0)
(0.0537605 -0.055467 0)
(0.0614346 -0.0545891 0)
(0.0693563 -0.0534224 0)
(0.0776 -0.0518818 0)
(0.0862666 -0.0498573 0)
(0.0954965 -0.047205 0)
(0.105491 -0.0437342 0)
(0.11655 -0.0391867 0)
(0.129131 -0.0332016 0)
(0.143939 -0.0252608 0)
(0.161876 -0.0146076 0)
(0.184978 -0.000466728 0)
(0.218115 0.0191684 0)
(0.260263 0.0482152 0)
(0.358801 0.0894467 0)
(0.346148 0.187713 0)
(0.00351449 -0.071335 0)
(0.0105816 -0.0719303 0)
(0.0177046 -0.0716426 0)
(0.0248802 -0.0716014 0)
(0.0321506 -0.0715405 0)
(0.0395509 -0.07144 0)
(0.0471224 -0.0712832 0)
(0.0549149 -0.0710491 0)
(0.0629907 -0.0707116 0)
(0.0714288 -0.0702398 0)
(0.0803308 -0.0695978 0)
(0.0898297 -0.0687454 0)
(0.100102 -0.0676397 0)
(0.111383 -0.0662397 0)
(0.12399 -0.0645166 0)
(0.138353 -0.0624732 0)
(0.155043 -0.0601825 0)
(0.174819 -0.057854 0)
(0.198705 -0.0558392 0)
(0.228689 -0.0552901 0)
(0.262381 -0.0588436 0)
(0.332159 -0.0691641 0)
(0.294038 -0.103407 0)
(0.00349844 -0.0854393 0)
(0.0105319 -0.0861985 0)
(0.0176251 -0.085973 0)
(0.0247821 -0.0861033 0)
(0.0320474 -0.0862836 0)
(0.0394597 -0.0865034 0)
(0.0470631 -0.0867612 0)
(0.0549101 -0.0870555 0)
(0.0630632 -0.0873871 0)
(0.0715987 -0.0877603 0)
(0.0806101 -0.0881862 0)
(0.0902131 -0.0886869 0)
(0.10055 -0.0893019 0)
(0.111797 -0.0900986 0)
(0.124169 -0.0911882 0)
(0.137924 -0.0927484 0)
(0.153367 -0.0950577 0)
(0.170846 -0.0985424 0)
(0.190713 -0.103844 0)
(0.213613 -0.111934 0)
(0.236808 -0.124447 0)
(0.281442 -0.142526 0)
(0.218625 -0.174813 0)
(0.00342457 -0.0993631 0)
(0.0103048 -0.100272 0)
(0.017241 -0.100123 0)
(0.024241 -0.100434 0)
(0.0313452 -0.100865 0)
(0.0385887 -0.101414 0)
(0.0460108 -0.102091 0)
(0.0536558 -0.10291 0)
(0.0615742 -0.103891 0)
(0.0698242 -0.105062 0)
(0.0784724 -0.106462 0)
(0.087595 -0.108148 0)
(0.0972772 -0.110199 0)
(0.107612 -0.112725 0)
(0.118698 -0.115877 0)
(0.130629 -0.119866 0)
(0.143483 -0.124974 0)
(0.157295 -0.131586 0)
(0.172005 -0.140205 0)
(0.187598 -0.151484 0)
(0.201659 -0.16633 0)
(0.2297 -0.185052 0)
(0.1652 -0.211813 0)
(0.00329376 -0.112875 0)
(0.00990454 -0.113907 0)
(0.0165618 -0.113835 0)
(0.0232749 -0.114309 0)
(0.0300753 -0.114965 0)
(0.036991 -0.115804 0)
(0.0440515 -0.116844 0)
(0.0512885 -0.118107 0)
(0.0587359 -0.119621 0)
(0.0664294 -0.121425 0)
(0.0744066 -0.123567 0)
(0.0827045 -0.126113 0)
(0.0913583 -0.129145 0)
(0.100396 -0.13277 0)
(0.109835 -0.137121 0)
(0.119669 -0.142368 0)
(0.129859 -0.148715 0)
(0.140309 -0.15641 0)
(0.150837 -0.165737 0)
(0.16128 -0.177 0)
(0.169784 -0.190548 0)
(0.188863 -0.206213 0)
(0.129209 -0.226131 0)
(0.00311393 -0.125763 0)
(0.00935625 -0.126882 0)
(0.0156328 -0.126878 0)
(0.0219528 -0.127483 0)
(0.0283375 -0.128315 0)
(0.0348059 -0.129379 0)
(0.0413769 -0.130693 0)
(0.0480693 -0.132281 0)
(0.0549012 -0.134173 0)
(0.0618891 -0.136406 0)
(0.0690467 -0.139027 0)
(0.0763829 -0.142092 0)
(0.083899 -0.145671 0)
(0.0915852 -0.149846 0)
(0.0994156 -0.154714 0)
(0.107342 -0.160388 0)
(0.115283 -0.166991 0)
(0.123121 -0.174654 0)
(0.130675 -0.183509 0)
(0.137803 -0.193663 0)
(0.143144 -0.205213 0)
(0.157187 -0.217877 0)
(0.103769 -0.233045 0)
(0.002897 -0.137852 0)
(0.00869668 -0.139019 0)
(0.0145176 -0.139072 0)
(0.020369 -0.139768 0)
(0.0262616 -0.140722 0)
(0.0322062 -0.141936 0)
(0.0382123 -0.143429 0)
(0.0442881 -0.145221 0)
(0.0504394 -0.147339 0)
(0.0566686 -0.149813 0)
(0.0629737 -0.152681 0)
(0.0693465 -0.155985 0)
(0.0757702 -0.159777 0)
(0.0822173 -0.164111 0)
(0.0886464 -0.169049 0)
(0.0949983 -0.174657 0)
(0.101192 -0.180998 0)
(0.107122 -0.188132 0)
(0.11265 -0.196103 0)
(0.11768 -0.204932 0)
(0.12121 -0.21462 0)
(0.132148 -0.224906 0)
(0.0848452 -0.236871 0)
(0.00265565 -0.149018 0)
(0.00796451 -0.150197 0)
(0.0132827 -0.150293 0)
(0.0186195 -0.151044 0)
(0.023977 -0.152067 0)
(0.029359 -0.153364 0)
(0.034768 -0.15495 0)
(0.0402044 -0.156842 0)
(0.0456657 -0.159059 0)
(0.051146 -0.161624 0)
(0.0566343 -0.164564 0)
(0.0621138 -0.167907 0)
(0.0675603 -0.171687 0)
(0.0729409 -0.175936 0)
(0.0782128 -0.180689 0)
(0.083321 -0.185978 0)
(0.0881972 -0.191831 0)
(0.0927592 -0.198266 0)
(0.0969089 -0.20529 0)
(0.100588 -0.212886 0)
(0.103043 -0.221029 0)
(0.111885 -0.229506 0)
(0.0702115 -0.239235 0)
(0.00240094 -0.159184 0)
(0.00719365 -0.160346 0)
(0.011986 -0.160473 0)
(0.0167881 -0.161248 0)
(0.0215945 -0.162298 0)
(0.0264045 -0.163624 0)
(0.0312156 -0.165236 0)
(0.0360234 -0.167147 0)
(0.0408206 -0.169369 0)
(0.0455967 -0.171919 0)
(0.0503369 -0.174811 0)
(0.0550215 -0.178065 0)
(0.0596249 -0.181697 0)
(0.0641154 -0.185726 0)
(0.0684544 -0.190166 0)
(0.0725957 -0.195029 0)
(0.0764854 -0.200323 0)
(0.0800624 -0.206046 0)
(0.0832583 -0.212187 0)
(0.0860391 -0.218719 0)
(0.0878265 -0.225613 0)
(0.0951458 -0.232702 0)
(0.0585686 -0.240798 0)
(0.00214174 -0.168316 0)
(0.00641085 -0.169437 0)
(0.0106728 -0.169588 0)
(0.0149385 -0.170363 0)
(0.0191979 -0.171408 0)
(0.0234468 -0.172724 0)
(0.0276799 -0.174316 0)
(0.03189 -0.176192 0)
(0.0360675 -0.178359 0)
(0.0402004 -0.180826 0)
(0.0442729 -0.183602 0)
(0.0482653 -0.186694 0)
(0.0521539 -0.19011 0)
(0.0559107 -0.193857 0)
(0.0595033 -0.197937 0)
(0.0628947 -0.202351 0)
(0.066043 -0.207095 0)
(0.0689032 -0.212156 0)
(0.0714263 -0.217518 0)
(0.0735917 -0.223154 0)
(0.0749478 -0.229034 0)
(0.0810923 -0.23503 0)
(0.0490963 -0.241876 0)
(0.00188482 -0.17641 0)
(0.00563654 -0.177472 0)
(0.00937639 -0.177642 0)
(0.0131169 -0.178401 0)
(0.0168448 -0.179422 0)
(0.0205546 -0.180703 0)
(0.0242394 -0.182246 0)
(0.0278909 -0.184056 0)
(0.0314992 -0.186135 0)
(0.0350523 -0.188486 0)
(0.0385354 -0.191112 0)
(0.0419309 -0.194014 0)
(0.045218 -0.197192 0)
(0.0483731 -0.200644 0)
(0.0513695 -0.204366 0)
(0.0541779 -0.208351 0)
(0.056766 -0.212589 0)
(0.0590996 -0.217063 0)
(0.0611427 -0.221754 0)
(0.0628815 -0.226638 0)
(0.0639573 -0.23169 0)
(0.0691752 -0.236811 0)
(0.0412822 -0.242653 0)
(0.00163419 -0.183483 0)
(0.00488301 -0.184474 0)
(0.00811738 -0.184663 0)
(0.0113506 -0.185398 0)
(0.0145685 -0.186385 0)
(0.0177655 -0.18762 0)
(0.0209348 -0.189102 0)
(0.0240683 -0.190833 0)
(0.027157 -0.192812 0)
(0.0301902 -0.195037 0)
(0.0331551 -0.197507 0)
(0.0360369 -0.200218 0)
(0.0388183 -0.203165 0)
(0.04148 -0.20634 0)
(0.0440007 -0.209734 0)
(0.0463565 -0.213334 0)
(0.0485216 -0.217126 0)
(0.0504686 -0.221092 0)
(0.0521689 -0.225211 0)
(0.0536105 -0.22946 0)
(0.0545006 -0.233821 0)
(0.0589852 -0.23822 0)
(0.0347803 -0.243232 0)
(0.00139119 -0.189566 0)
(0.00415303 -0.190478 0)
(0.00689986 -0.190688 0)
(0.00964604 -0.191399 0)
(0.0123772 -0.19235 0)
(0.0150891 -0.193537 0)
(0.0177756 -0.194959 0)
(0.0204296 -0.196613 0)
(0.0230433 -0.198497 0)
(0.0256082 -0.200606 0)
(0.0281143 -0.202935 0)
(0.0305505 -0.205477 0)
(0.0329036 -0.208223 0)
(0.0351589 -0.211161 0)
(0.0373001 -0.214276 0)
(0.0393083 -0.217554 0)
(0.0411625 -0.220974 0)
(0.0428389 -0.224515 0)
(0.0443114 -0.228154 0)
(0.0455645 -0.231866 0)
(0.0463457 -0.235633 0)
(0.0502511 -0.239401 0)
(0.0293446 -0.24367 0)
(0.00115628 -0.194709 0)
(0.00344659 -0.195535 0)
(0.00572282 -0.195769 0)
(0.00800185 -0.196458 0)
(0.0102682 -0.197377 0)
(0.0125186 -0.198522 0)
(0.0147481 -0.199892 0)
(0.0169521 -0.201482 0)
(0.0191256 -0.203289 0)
(0.0212628 -0.205305 0)
(0.0233573 -0.207523 0)
(0.0254014 -0.209934 0)
(0.0273866 -0.212525 0)
(0.0293031 -0.215281 0)
(0.0311398 -0.218185 0)
(0.0328836 -0.221215 0)
(0.0345186 -0.224348 0)
(0.0360258 -0.227558 0)
(0.0373811 -0.230814 0)
(0.0385651 -0.234085 0)
(0.0393491 -0.237342 0)
(0.0428648 -0.24053 0)
(0.0248644 -0.244028 0)
(0.000929197 -0.198731 0)
(0.00276417 -0.199473 0)
(0.00458461 -0.199735 0)
(0.00640892 -0.200406 0)
(0.00822396 -0.201299 0)
(0.0100293 -0.202412 0)
(0.0118215 -0.203741 0)
(0.0135972 -0.205282 0)
(0.0153539 -0.207031 0)
(0.0170894 -0.20898 0)
(0.0188015 -0.211121 0)
(0.0204877 -0.213444 0)
(0.0221451 -0.215934 0)
(0.0237704 -0.218574 0)
(0.0253589 -0.221342 0)
(0.0269046 -0.224213 0)
(0.0283983 -0.227154 0)
(0.0298271 -0.230129 0)
(0.0311734 -0.233101 0)
(0.0324254 -0.236029 0)
(0.0333785 -0.23887 0)
(0.0368762 -0.241576 0)
(0.02141 -0.244333 0)
(0.000699147 -0.201657 0)
(0.00209004 -0.202305 0)
(0.00347111 -0.202604 0)
(0.00485263 -0.203263 0)
(0.00623286 -0.204139 0)
(0.0076067 -0.205232 0)
(0.00897368 -0.206538 0)
(0.0103335 -0.208055 0)
(0.0116863 -0.209776 0)
(0.0130332 -0.211698 0)
(0.0143764 -0.213812 0)
(0.015719 -0.216109 0)
(0.0170655 -0.218576 0)
(0.0184217 -0.221196 0)
(0.0197945 -0.223946 0)
(0.0211902 -0.226794 0)
(0.022612 -0.2297 0)
(0.0240562 -0.232605 0)
(0.0255074 -0.235438 0)
(0.026956 -0.23811 0)
(0.0281941 -0.24055 0)
(0.0321098 -0.24281 0)
(0.0188642 -0.244774 0)
(0.000491844 -0.209441 0)
(0.00146674 -0.210006 0)
(0.00241237 -0.210363 0)
(0.00337419 -0.211041 0)
(0.00433368 -0.211946 0)
(0.00529218 -0.213076 0)
(0.00624977 -0.214429 0)
(0.00720766 -0.216004 0)
(0.00816822 -0.217799 0)
(0.00913524 -0.219809 0)
(0.0101144 -0.222033 0)
(0.011114 -0.224466 0)
(0.012146 -0.227102 0)
(0.0132278 -0.229933 0)
(0.0143832 -0.232946 0)
(0.0156446 -0.236122 0)
(0.0170528 -0.239428 0)
(0.0186542 -0.242808 0)
(0.0204902 -0.246162 0)
(0.0225349 -0.249296 0)
(0.0244213 -0.25182 0)
(0.0287332 -0.25343 0)
(0.0171309 -0.246479 0)
(0.000247868 -0.2084 0)
(0.00090336 -0.208852 0)
(0.00142956 -0.209222 0)
(0.00200752 -0.209858 0)
(0.00258009 -0.210703 0)
(0.00315515 -0.211759 0)
(0.00373386 -0.213023 0)
(0.00431804 -0.214495 0)
(0.00491029 -0.216175 0)
(0.00551431 -0.218062 0)
(0.00613544 -0.220158 0)
(0.00678145 -0.222463 0)
(0.00746405 -0.224981 0)
(0.00820116 -0.227718 0)
(0.00902078 -0.230683 0)
(0.00996714 -0.23389 0)
(0.0111152 -0.23736 0)
(0.0125906 -0.241127 0)
(0.0146366 -0.245301 0)
(0.0174793 -0.250075 0)
(0.021614 -0.254703 0)
(0.0336252 -0.258443 0)
(0.0291396 -0.23335 0)
(3.85386e-05 -0.127599 0)
(-0.000236394 -0.127852 0)
(-0.000330533 -0.128145 0)
(-0.000465758 -0.128588 0)
(-0.000603232 -0.129177 0)
(-0.000746936 -0.129914 0)
(-0.000897539 -0.130798 0)
(-0.00105627 -0.131832 0)
(-0.00122437 -0.133015 0)
(-0.00140294 -0.134352 0)
(-0.00159303 -0.135845 0)
(-0.0017955 -0.137502 0)
(-0.00201091 -0.13933 0)
(-0.00223939 -0.141346 0)
(-0.00248012 -0.143569 0)
(-0.00273058 -0.146035 0)
(-0.00298726 -0.148792 0)
(-0.00334275 -0.151911 0)
(-0.00385387 -0.155545 0)
(-0.00490413 -0.159855 0)
(-0.00697034 -0.166917 0)
(0.0204388 -0.178477 0)
(0.042357 -0.240074 0)
(0.00201596 -0.286429 0)
(-0.00853377 -0.287212 0)
(-0.0111116 -0.287901 0)
(-0.0155716 -0.288706 0)
(-0.0200449 -0.289794 0)
(-0.024637 -0.29115 0)
(-0.0293525 -0.292792 0)
(-0.0342121 -0.294723 0)
(-0.0392329 -0.296943 0)
(-0.0444245 -0.299458 0)
(-0.0497902 -0.302281 0)
(-0.0553224 -0.305433 0)
(-0.0609948 -0.308943 0)
(-0.0667549 -0.312858 0)
(-0.072513 -0.317248 0)
(-0.078117 -0.322204 0)
(-0.0833989 -0.327835 0)
(-0.0879528 -0.333939 0)
(-0.0897208 -0.340158 0)
(-0.0913096 -0.347154 0)
(-0.101036 -0.382866 0)
(-0.0553081 -0.488299 0)
(-0.13147 -0.838633 0)
(-0.0025011 -0.180123 0)
(-0.00724866 -0.181171 0)
(-0.0118495 -0.18139 0)
(-0.0165647 -0.181692 0)
(-0.0213505 -0.182132 0)
(-0.0262735 -0.1827 0)
(-0.0313492 -0.183401 0)
(-0.0365927 -0.184242 0)
(-0.0420256 -0.185234 0)
(-0.0476695 -0.186394 0)
(-0.0535458 -0.187745 0)
(-0.0596774 -0.189324 0)
(-0.0660891 -0.191186 0)
(-0.072805 -0.193414 0)
(-0.0798408 -0.196134 0)
(-0.0872237 -0.19953 0)
(-0.0950093 -0.203922 0)
(-0.103018 -0.209734 0)
(-0.110711 -0.217744 0)
(-0.122813 -0.22993 0)
(-0.133676 -0.245217 0)
(-0.116844 -0.252779 0)
(-0.253309 -0.269708 0)
(-0.0024607 -0.183025 0)
(-0.0074214 -0.184918 0)
(-0.0123776 -0.18508 0)
(-0.0173746 -0.185321 0)
(-0.0224723 -0.185678 0)
(-0.0276797 -0.186146 0)
(-0.0330362 -0.18672 0)
(-0.0385719 -0.187399 0)
(-0.0443223 -0.188189 0)
(-0.0503282 -0.1891 0)
(-0.0566333 -0.190146 0)
(-0.0632883 -0.191352 0)
(-0.0703624 -0.192753 0)
(-0.0779472 -0.194396 0)
(-0.0861564 -0.196349 0)
(-0.095227 -0.198711 0)
(-0.105453 -0.20161 0)
(-0.117229 -0.20521 0)
(-0.131458 -0.209849 0)
(-0.149646 -0.21603 0)
(-0.171345 -0.222742 0)
(-0.198378 -0.236472 0)
(-0.241854 -0.26121 0)
(-0.00248043 -0.172078 0)
(-0.00756509 -0.173892 0)
(-0.0126491 -0.173946 0)
(-0.0177663 -0.174049 0)
(-0.0230075 -0.174185 0)
(-0.0283631 -0.174358 0)
(-0.0338618 -0.174566 0)
(-0.0395392 -0.174806 0)
(-0.045433 -0.175078 0)
(-0.0515875 -0.175378 0)
(-0.0580551 -0.175702 0)
(-0.0648963 -0.176046 0)
(-0.0721842 -0.176405 0)
(-0.080011 -0.17677 0)
(-0.0884954 -0.177127 0)
(-0.0977888 -0.177447 0)
(-0.108072 -0.177643 0)
(-0.119572 -0.17759 0)
(-0.132644 -0.17706 0)
(-0.147542 -0.175534 0)
(-0.163953 -0.172102 0)
(-0.1841 -0.166857 0)
(-0.213995 -0.160583 0)
(-0.00250179 -0.162088 0)
(-0.00756727 -0.163758 0)
(-0.01267 -0.163709 0)
(-0.0178451 -0.163671 0)
(-0.0230883 -0.163617 0)
(-0.0284447 -0.163537 0)
(-0.0339382 -0.163428 0)
(-0.0396034 -0.163282 0)
(-0.0454757 -0.16309 0)
(-0.0515898 -0.16284 0)
(-0.0579864 -0.162515 0)
(-0.0647156 -0.162094 0)
(-0.071837 -0.161545 0)
(-0.0794197 -0.160826 0)
(-0.0875418 -0.15988 0)
(-0.0962919 -0.158628 0)
(-0.105771 -0.156952 0)
(-0.116092 -0.154695 0)
(-0.127371 -0.151636 0)
(-0.139656 -0.14744 0)
(-0.152798 -0.141738 0)
(-0.166953 -0.134364 0)
(-0.183846 -0.124542 0)
(-0.00246566 -0.152075 0)
(-0.0074361 -0.153588 0)
(-0.0124611 -0.153487 0)
(-0.0175739 -0.153306 0)
(-0.0227309 -0.153064 0)
(-0.0279785 -0.152748 0)
(-0.0333442 -0.152349 0)
(-0.0388538 -0.151856 0)
(-0.0445374 -0.151254 0)
(-0.0504253 -0.15052 0)
(-0.0565466 -0.14963 0)
(-0.0629321 -0.148554 0)
(-0.0696179 -0.147252 0)
(-0.0766449 -0.145672 0)
(-0.0840536 -0.143744 0)
(-0.0918771 -0.141384 0)
(-0.10014 -0.138479 0)
(-0.108858 -0.134887 0)
(-0.11803 -0.130427 0)
(-0.1276 -0.124875 0)
(-0.1374 -0.117987 0)
(-0.147283 -0.109541 0)
(-0.157826 -0.0993581 0)
(-0.00237568 -0.142283 0)
(-0.00721937 -0.143651 0)
(-0.012088 -0.143489 0)
(-0.0169876 -0.143202 0)
(-0.0219559 -0.142805 0)
(-0.0269991 -0.142294 0)
(-0.032141 -0.141657 0)
(-0.0373973 -0.140881 0)
(-0.0427837 -0.139949 0)
(-0.0483203 -0.13884 0)
(-0.0540279 -0.137526 0)
(-0.0599249 -0.135973 0)
(-0.0660269 -0.13414 0)
(-0.0723476 -0.131978 0)
(-0.0788972 -0.129426 0)
(-0.0856769 -0.126411 0)
(-0.0926752 -0.122849 0)
(-0.0998658 -0.118641 0)
(-0.1072 -0.113672 0)
(-0.114594 -0.107814 0)
(-0.12189 -0.100942 0)
(-0.128916 -0.092932 0)
(-0.135887 -0.0836738 0)
(-0.00224984 -0.132895 0)
(-0.00688055 -0.134159 0)
(-0.0115347 -0.133907 0)
(-0.0161855 -0.133529 0)
(-0.0208939 -0.133013 0)
(-0.0256598 -0.132354 0)
(-0.0304942 -0.131539 0)
(-0.0354119 -0.130554 0)
(-0.040424 -0.12938 0)
(-0.0455383 -0.128 0)
(-0.0507612 -0.126389 0)
(-0.0560992 -0.124518 0)
(-0.0615566 -0.122351 0)
(-0.0671339 -0.119848 0)
(-0.0728251 -0.116963 0)
(-0.0786144 -0.113642 0)
(-0.0844741 -0.109828 0)
(-0.0903619 -0.10546 0)
(-0.0962176 -0.100471 0)
(-0.101961 -0.0947954 0)
(-0.107469 -0.0883776 0)
(-0.112614 -0.0811649 0)
(-0.117474 -0.0730714 0)
(-0.00214246 -0.123988 0)
(-0.00646912 -0.125148 0)
(-0.0108012 -0.124849 0)
(-0.0151799 -0.124405 0)
(-0.0195846 -0.123805 0)
(-0.0240303 -0.12304 0)
(-0.0285162 -0.122101 0)
(-0.0330496 -0.120977 0)
(-0.0376406 -0.119651 0)
(-0.0422939 -0.118105 0)
(-0.0470092 -0.11632 0)
(-0.0517831 -0.114272 0)
(-0.0566103 -0.111936 0)
(-0.0614826 -0.109281 0)
(-0.0663858 -0.106276 0)
(-0.0712983 -0.102883 0)
(-0.076189 -0.0990668 0)
(-0.0810155 -0.0947922 0)
(-0.0857224 -0.0900253 0)
(-0.0902439 -0.0847388 0)
(-0.0944915 -0.0789145 0)
(-0.0983771 -0.0725366 0)
(-0.101936 -0.0655303 0)
(-0.00199767 -0.115672 0)
(-0.00600669 -0.116704 0)
(-0.01002 -0.116395 0)
(-0.0140756 -0.115912 0)
(-0.0181404 -0.115262 0)
(-0.0222251 -0.114434 0)
(-0.0263355 -0.113421 0)
(-0.0304716 -0.112215 0)
(-0.034633 -0.110804 0)
(-0.0388201 -0.109175 0)
(-0.0430305 -0.107311 0)
(-0.0472579 -0.105195 0)
(-0.0514929 -0.102809 0)
(-0.0557223 -0.100132 0)
(-0.0599287 -0.0971423 0)
(-0.0640896 -0.0938193 0)
(-0.0681766 -0.0901416 0)
(-0.0721533 -0.0860912 0)
(-0.0759757 -0.0816538 0)
(-0.0795934 -0.0768222 0)
(-0.0829442 -0.0715975 0)
(-0.0859691 -0.0659808 0)
(-0.0886844 -0.059909 0)
(-0.00180834 -0.108016 0)
(-0.00549381 -0.108958 0)
(-0.00919612 -0.108635 0)
(-0.0128982 -0.108131 0)
(-0.0166094 -0.10745 0)
(-0.020322 -0.10659 0)
(-0.0240434 -0.105544 0)
(-0.0277755 -0.104304 0)
(-0.0315136 -0.102861 0)
(-0.0352517 -0.101205 0)
(-0.0389838 -0.0993265 0)
(-0.0427029 -0.0972132 0)
(-0.0463988 -0.094853 0)
(-0.0500577 -0.0922332 0)
(-0.0536623 -0.0893414 0)
(-0.0571914 -0.086166 0)
(-0.0606209 -0.0826968 0)
(-0.063922 -0.0789263 0)
(-0.0670612 -0.0748512 0)
(-0.0700019 -0.0704736 0)
(-0.0727001 -0.0658026 0)
(-0.075116 -0.0608459 0)
(-0.0772574 -0.0555506 0)
(-0.0016355 -0.100983 0)
(-0.00498683 -0.101873 0)
(-0.00834421 -0.101538 0)
(-0.0116878 -0.101029 0)
(-0.0150362 -0.100342 0)
(-0.0183842 -0.0994758 0)
(-0.0217255 -0.098428 0)
(-0.0250593 -0.0971923 0)
(-0.0283838 -0.0957614 0)
(-0.0316939 -0.0941283 0)
(-0.0349819 -0.0922862 0)
(-0.0382387 -0.0902281 0)
(-0.0414536 -0.0879469 0)
(-0.0446137 -0.0854355 0)
(-0.0477032 -0.0826878 0)
(-0.0507041 -0.0796987 0)
(-0.0535962 -0.0764652 0)
(-0.0563571 -0.0729862 0)
(-0.0589617 -0.0692641 0)
(-0.0613834 -0.0653054 0)
(-0.0635917 -0.0611217 0)
(-0.0655593 -0.0567233 0)
(-0.067291 -0.052065 0)
(-0.00148253 -0.0946625 0)
(-0.00448615 -0.095489 0)
(-0.00748274 -0.0951528 0)
(-0.0104815 -0.0946449 0)
(-0.0134711 -0.0939672 0)
(-0.0164582 -0.0931141 0)
(-0.0194348 -0.0920829 0)
(-0.022394 -0.0908718 0)
(-0.0253312 -0.0894776 0)
(-0.0282417 -0.0878955 0)
(-0.0311191 -0.0861207 0)
(-0.0339551 -0.0841488 0)
(-0.0367398 -0.0819761 0)
(-0.0394616 -0.0795992 0)
(-0.0421071 -0.0770161 0)
(-0.0446612 -0.0742259 0)
(-0.0471075 -0.0712293 0)
(-0.0494286 -0.0680293 0)
(-0.0516057 -0.0646314 0)
(-0.0536198 -0.061044 0)
(-0.0554497 -0.0572794 0)
(-0.057076 -0.0533485 0)
(-0.0585031 -0.0492123 0)
(-0.00132393 -0.0890352 0)
(-0.00398395 -0.0897958 0)
(-0.00663463 -0.0894724 0)
(-0.00929806 -0.0889769 0)
(-0.0119494 -0.0883172 0)
(-0.0145849 -0.0874899 0)
(-0.0172054 -0.0864917 0)
(-0.0198073 -0.0853212 0)
(-0.0223834 -0.0839774 0)
(-0.0249265 -0.0824585 0)
(-0.0274298 -0.0807625 0)
(-0.029886 -0.0788875 0)
(-0.032287 -0.0768321 0)
(-0.0346228 -0.0745956 0)
(-0.0368824 -0.0721782 0)
(-0.0390538 -0.0695816 0)
(-0.0411242 -0.0668088 0)
(-0.0430803 -0.0638649 0)
(-0.0449082 -0.0607566 0)
(-0.0465942 -0.0574932 0)
(-0.0481233 -0.0540862 0)
(-0.0494814 -0.0505459 0)
(-0.0506723 -0.0468402 0)
(-0.00115365 -0.084045 0)
(-0.00348875 -0.0847585 0)
(-0.00582138 -0.0844488 0)
(-0.00815194 -0.083976 0)
(-0.010475 -0.08334 0)
(-0.0127789 -0.0825432 0)
(-0.0150631 -0.081586 0)
(-0.0173257 -0.0804668 0)
(-0.019561 -0.079184 0)
(-0.0217623 -0.0777371 0)
(-0.0239227 -0.0761261 0)
(-0.0260356 -0.0743513 0)
(-0.0280936 -0.0724134 0)
(-0.0300884 -0.0703136 0)
(-0.0320111 -0.068054 0)
(-0.0338524 -0.0656379 0)
(-0.0356024 -0.0630696 0)
(-0.037251 -0.0603549 0)
(-0.038788 -0.0575011 0)
(-0.0402029 -0.054517 0)
(-0.0414849 -0.0514131 0)
(-0.0426238 -0.0481988 0)
(-0.0436231 -0.0448494 0)
(-0.000989447 -0.0796806 0)
(-0.00301381 -0.0803616 0)
(-0.00504362 -0.0800623 0)
(-0.00705588 -0.0796098 0)
(-0.00905603 -0.0790017 0)
(-0.0110444 -0.0782398 0)
(-0.0130151 -0.0773255 0)
(-0.0149613 -0.0762585 0)
(-0.0168781 -0.0750384 0)
(-0.0187612 -0.0736652 0)
(-0.0206055 -0.0721401 0)
(-0.0224052 -0.0704644 0)
(-0.0241537 -0.0686401 0)
(-0.0258441 -0.0666697 0)
(-0.0274692 -0.0645564 0)
(-0.0290215 -0.0623043 0)
(-0.0304936 -0.0599183 0)
(-0.0318777 -0.0574045 0)
(-0.0331659 -0.0547701 0)
(-0.0343504 -0.0520233 0)
(-0.035423 -0.0491734 0)
(-0.0363765 -0.0462295 0)
(-0.0372135 -0.0431736 0)
(-0.00084327 -0.0759436 0)
(-0.00256869 -0.0765944 0)
(-0.00429618 -0.0763071 0)
(-0.006009 -0.0758694 0)
(-0.0077064 -0.075288 0)
(-0.00939353 -0.0745619 0)
(-0.0110644 -0.0736899 0)
(-0.0127118 -0.0726723 0)
(-0.0143314 -0.0715105 0)
(-0.0159198 -0.0702062 0)
(-0.0174729 -0.0687612 0)
(-0.0189857 -0.0671773 0)
(-0.0204526 -0.065457 0)
(-0.0218679 -0.0636035 0)
(-0.0232256 -0.0616204 0)
(-0.0245202 -0.0595122 0)
(-0.0257457 -0.0572843 0)
(-0.0268963 -0.0549426 0)
(-0.0279661 -0.0524938 0)
(-0.0289491 -0.0499456 0)
(-0.0298393 -0.0473067 0)
(-0.0306314 -0.0445855 0)
(-0.0313272 -0.0417691 0)
(-0.000708446 -0.0728095 0)
(-0.00214658 -0.0734332 0)
(-0.00357616 -0.0731578 0)
(-0.00500097 -0.0727369 0)
(-0.00641803 -0.0721788 0)
(-0.00782107 -0.071483 0)
(-0.00920547 -0.0706482 0)
(-0.0105691 -0.0696753 0)
(-0.0119096 -0.0685665 0)
(-0.0132237 -0.0673241 0)
(-0.0145068 -0.0659502 0)
(-0.0157543 -0.064447 0)
(-0.0169618 -0.0628173 0)
(-0.018125 -0.0610645 0)
(-0.0192394 -0.0591927 0)
(-0.0203005 -0.0572067 0)