/*--------------------------------*- C++ -*----------------------------------*\
| =========                 |                                                 |
| \\      /  F ield         | OpenFOAM: The Open Source CFD Toolbox           |
|  \\    /   O peration     | Version:  2206                                  |
|   \\  /    A nd           | Website:  www.openfoam.com                      |
|    \\/     M anipulation  |                                                 |
\*---------------------------------------------------------------------------*/
FoamFile
{
    version     2.0;
    format      ascii;
    arch        "LSB;label=32;scalar=64";
    class       volScalarField;
    location    "0.55";
    object      alpha.water;
}
// * * * * * * * * * * * * * * * * * * * * * * * * * * * * * * * * * * * * * //

dimensions      [0 0 0 0 0 0 0];

internalField   nonuniform List<scalar> 
2268
(
1
1
1
1
1
1
1
1
1
1
1
1
1
1
1
1
1
1
1
0.999998
0.999998
0.989573
0.881195
1
1
1
1
1
1
1
1
1
1
1
1
1
1
1
1
1
1
1
0.999986
0.999945
0.999032
0.88113
1
1
1
1
1
1
1
1
1
1
1
1
1
1
1
1
1
1
1
1
1
0.990364
0.914944
1
1
1
1
1
1
1
1
1
1
1
1
1
1
1
1
1
1
1
1
1
0.999252
0.995972
1
1
1
1
1
1
1
1
1
1
1
1
1
1
1
1
1
1
1
1
1
1
1
1
1
1
1
1
1
1
1
1
1
1
1
1
1
1
1
1
1
1
1
1
1
1
1
1
1
1
1
1
1
1
1
1
1
1
1
1
1
1
1
1
1
1
1
1
1
0.82921
0.818703
0.789913
0.801438
0.832613
0.880128
0.927125
0.967181
0.994925
1
1
1
0.999998
0.999991
0.999985
0.99998
0.999972
0.999967
0.999969
0.999971
0.999973
0.999976
0.999989
0.0190523
0.073022
0.380082
0.45912
0.47076
0.470973
0.470973
0.470973
0.470924
0.470207
0.466954
0.449612
0.438588
0.34947
0.097797
0.0120692
0.00324836
0.00133088
0.00133088
0.0205356
0.00790321
0.000933865
0.00281175
0.188994
0.47076
0.470973
0.470924
0.470207
0.438274
0.159546
0.00595762
0.00169679
0.000735962
0.000549068
0.0257517
0.0213924
0.00235541
0.00124652
0.00630737
0.000607475
0.000833612
0.000933865
0.0997187
0.465768
0.467339
0.433768
0.298661
0.0222237
0.0033339
0.00144491
0.000735961
0.00043713
0.000273402
0.00321943
0.0154616
0.00640222
0.000984947
0.000387443
0.000226694
0.000474051
0.00129519
0.175706
0.248213
0.129124
0.00653465
0.00208198
0.0046468
0.00531271
0.00188129
0.000603551
0.000273402
0.000185762
0.000219577
0.00539474
0.00572422
0.00084993
9.02514e-05
0.00018485
0.00281559
0.168234
0.198434
0.020417
0.000960536
0.0006657
0.00109393
0.0145297
0.0607926
0.0233968
0.000746096
0.000185759
0.000145894
0.000183669
0.000290399
0.00112034
0.000345216
4.96641e-05
9.02514e-05
0.218446
0.253227
0.171374
0.00627718
0.000265071
0.000418994
0.000531302
0.100436
0.113401
0.0860611
0.00579065
0.000148069
0.00013147
0.000144882
0.000174295
0.000214485
9.46871e-05
4.97755e-05
0.156153
0.281763
0.251278
0.0212105
0.0002137
1.8176e-05
0.000105462
0.0609772
0.113401
0.113401
0.113401
0.0405461
0.000156247
9.25218e-05
6.65084e-05
8.94157e-05
9.40443e-05
4.27324e-05
0.635057
0.587392
0.285645
0.000618184
6.52883e-05
5.90447e-06
6.26069e-07
1.8176e-05
0.0836498
0.112464
0.113401
0.112464
0.0740772
0.00107063
4.45363e-05
2.974e-05
4.31871e-05
4.22203e-05
2.25306e-05
0.134456
0.157207
0.208175
0.282449
0.334515
0.370011
0.396447
0.42498
0.495825
0.613912
0.708008
0.763453
0.791952
0.812702
0.831159
0.838981
0.837548
0.850721
0.879581
0.898896
0.912413
0.931136
0.960838
0.000484202
0.00065032
0.0009316
0.0010821
0.00290673
0.00743524
0.0221242
0.041168
0.0587988
0.0737761
0.0796075
0.0784762
0.0709839
0.0677818
0.0815
0.0977837
0.103026
0.11229
0.142425
0.170672
0.194307
0.227323
0.297277
6.39271e-05
7.44816e-05
9.90793e-05
9.13332e-05
5.31928e-05
3.81848e-05
2.09286e-05
1.95956e-06
9.48689e-07
7.88865e-07
6.05447e-07
3.8755e-07
1.66495e-07
4.19244e-08
7.66976e-09
1.61697e-09
3.4375e-10
8.34581e-11
3.48169e-11
3.77066e-11
6.96338e-11
9.07982e-11
2.06371e-10
7.73726e-06
6.63083e-06
6.40783e-06
4.96526e-06
2.59942e-06
1.1781e-06
2.95259e-07
5.10298e-06
7.24709e-06
2.4295e-06
5.8573e-06
6.11038e-06
6.07739e-06
3.60373e-06
7.68158e-09
-5.18916e-12
1.93848e-15
0
-1.70042e-27
0
3.1266e-10
2.63519e-09
6.05855e-09
8.68703e-07
4.4559e-07
2.89515e-07
4.15247e-08
3.36585e-08
4.33964e-09
3.79944e-08
7.39138e-11
1.04938e-11
1.51163e-12
2.17741e-13
6.0824e-14
3.01281e-15
-4.6769e-15
-1.3188e-14
-1.66193e-16
-1.12379e-17
-5.07058e-16
-1.99054e-15
-8.68535e-16
5.06362e-10
5.68671e-09
7.62089e-09
9.34202e-08
2.30731e-08
5.00759e-09
-1.97618e-10
-1.42656e-09
-1.02281e-11
-2.03651e-13
-2.07538e-14
-3.40561e-15
-2.72946e-20
-2.83686e-28
-9.07714e-28
-1.00092e-27
-3.7156e-15
-1.13026e-14
-1.59347e-14
-1.74221e-14
-1.69745e-14
-1.22642e-14
-2.34243e-15
-7.74809e-37
1.61292e-15
7.28071e-15
9.71944e-09
9.2362e-10
9.52483e-12
-1.97623e-13
-4.04009e-13
-2.86085e-13
-9.18418e-16
-3.22188e-17
-1.30695e-14
-2.93196e-14
-4.09267e-14
-4.94715e-14
-5.4023e-14
-5.39788e-14
-4.95686e-14
-4.16496e-14
-3.13224e-14
-1.95967e-14
-7.01915e-15
6.62973e-15
4.40243e-14
1.08804e-13
3.07501e-13
8.96684e-10
1.07881e-11
1.89028e-13
5.66399e-15
3.61931e-16
-2.30009e-17
-6.23654e-16
-2.18035e-15
-3.98072e-15
-6.0369e-15
-7.97003e-15
-9.34835e-15
-9.87297e-15
-9.43885e-15
-8.10743e-15
-6.05501e-15
-3.52204e-15
-7.54445e-16
3.47126e-15
1.536e-14
3.82498e-14
7.53141e-14
1.23375e-13
3.46402e-11
2.65858e-13
5.52093e-15
3.91217e-16
1.5744e-17
-4.19438e-21
-1.30726e-16
-3.18139e-16
-5.76894e-16
-8.65087e-16
-1.11005e-15
-1.24695e-15
-1.24154e-15
-1.09233e-15
-8.18037e-16
-4.14243e-16
0
1.00803e-15
3.38756e-15
8.37527e-15
1.87241e-14
4.0012e-14
8.27843e-14
4.92388e-12
9.43018e-13
4.37226e-15
1.16634e-17
-5.30232e-20
-1.25539e-18
-1.41489e-17
-3.36849e-17
-6.03716e-17
-8.71257e-17
-1.04702e-16
-1.06417e-16
-8.94134e-17
-5.01469e-17
-1.82851e-18
1.19695e-16
4.87913e-16
1.36226e-15
3.47176e-15
8.53565e-15
2.12869e-14
5.25062e-14
1.21785e-13
3.20517e-12
1.31632e-13
8.02961e-17
9.00846e-19
-1.38692e-20
-9.82504e-20
-1.04022e-18
-2.45109e-18
-4.14627e-18
-5.36368e-18
-5.26393e-18
-3.12342e-18
0
1.15798e-17
5.13146e-17
1.62203e-16
4.47237e-16
1.27559e-15
3.68854e-15
1.07729e-14
2.96639e-14
7.43198e-14
1.68079e-13
5.55004e-13
1.1919e-14
8.01987e-18
1.1105e-19
1.70122e-21
-7.05962e-32
-4.56363e-20
-9.96393e-20
-1.28213e-19
-7.47795e-20
3.76615e-20
6.60751e-19
3.20695e-18
1.08933e-17
3.38358e-17
1.11493e-16
3.78701e-16
1.27963e-15
4.25291e-15
1.30516e-14
3.54007e-14
8.65376e-14
1.91519e-13
2.93345e-14
1.08027e-15
8.95672e-19
9.68501e-21
4.3263e-22
7.52316e-38
-4.49262e-22
-3.27115e-23
2.51144e-21
1.88453e-20
9.25834e-20
3.31396e-19
1.37438e-18
5.62937e-18
2.19407e-17
8.5364e-17
3.38679e-16
1.29755e-15
4.51199e-15
1.38505e-14
3.68816e-14
8.98007e-14
1.97514e-13
2.18964e-15
9.11409e-17
9.24726e-20
9.57605e-22
1.87463e-23
4.12879e-24
2.55327e-23
2.46327e-22
7.7695e-22
3.83279e-21
2.35816e-20
1.43188e-19
7.3998e-19
3.2296e-18
1.34972e-17
6.02375e-17
2.80023e-16
1.20833e-15
4.36507e-15
1.28595e-14
3.3849e-14
8.88052e-14
1.91469e-13
1.54002e-16
6.92137e-18
8.33683e-21
8.68062e-23
9.87341e-25
3.2755e-25
1.93256e-24
1.952e-23
1.76074e-22
1.39397e-21
9.97838e-21
6.3939e-20
3.45918e-19
1.58139e-18
7.39915e-18
3.86036e-17
1.97067e-16
8.51423e-16
2.93002e-15
8.88198e-15
2.95357e-14
8.77548e-14
1.84362e-13
9.731e-18
4.74699e-19
6.72018e-22
7.41282e-24
5.88326e-26
2.099e-26
5.63598e-25
6.3188e-24
5.57626e-23
4.51037e-22
3.50678e-21
2.48149e-20
1.4531e-19
6.97943e-19
3.69972e-18
2.17667e-17
1.12997e-16
4.55425e-16
1.61009e-15
6.71271e-15
2.92621e-14
9.0122e-14
2.16679e-13
5.43974e-19
2.93962e-20
4.93836e-23
4.98964e-25
2.43649e-26
4.48866e-27
1.24666e-25
1.50244e-24
1.46339e-23
1.33295e-22
1.14245e-21
8.79285e-21
5.5352e-20
2.80552e-19
1.69323e-18
1.04784e-17
5.20408e-17
2.12239e-16
9.73098e-16
6.21593e-15
3.19753e-14
9.128e-14
2.65686e-13
2.62454e-20
1.62503e-21
3.34469e-24
2.89025e-26
1.50104e-27
1.52467e-27
2.80877e-26
3.55157e-25
3.69478e-24
3.66242e-23
3.41488e-22
2.84976e-21
1.93731e-20
1.05378e-19
7.0894e-19
4.1922e-18
2.00832e-17
1.0224e-16
6.61763e-16
6.20649e-15
3.04741e-14
7.74524e-14
2.87547e-13
1.04859e-21
7.79437e-23
2.0773e-25
1.46276e-27
6.17591e-29
3.24092e-28
5.80089e-27
7.69512e-26
8.66468e-25
9.36999e-24
9.49585e-23
8.56298e-22
6.30595e-21
3.7584e-20
2.68281e-19
1.40289e-18
7.46879e-18
5.54599e-17
4.35393e-16
4.67106e-15
1.82001e-14
5.23952e-14
2.74766e-13
3.23123e-23
3.06183e-24
1.14132e-26
6.03487e-29
2.09816e-30
6.04705e-29
1.12553e-27
1.58202e-26
1.92911e-25
2.2579e-24
2.47498e-23
2.40303e-22
1.92279e-21
1.27652e-20
9.13377e-20
4.20145e-19
3.06926e-18
3.03377e-17
2.32379e-16
2.19079e-15
1.02913e-14
3.90134e-14
1.92436e-13
6.68985e-25
9.01545e-26
5.12949e-28
1.26405e-30
1.75009e-31
1.05043e-29
2.05691e-28
3.09334e-27
4.08881e-26
5.14708e-25
6.07158e-24
6.32962e-23
5.51559e-22
4.09099e-21
2.83965e-20
1.24049e-19
1.37413e-18
1.36304e-17
1.05167e-16
1.11559e-15
8.1982e-15
3.40747e-14
1.11966e-13
6.54982e-27
1.7576e-27
1.76999e-29
3.129e-33
4.65075e-32
1.7484e-30
3.57266e-29
5.79017e-28
8.27853e-27
1.11339e-25
1.4048e-24
1.5698e-23
1.49118e-22
1.21914e-21
8.33678e-21
3.78632e-20
5.77965e-19
4.66091e-18
4.91129e-17
7.85815e-16
7.98227e-15
2.90808e-14
6.00314e-14
7.41851e-30
9.38273e-30
2.52669e-31
-1.93328e-35
8.34158e-33
2.76166e-31
5.91718e-30
1.03697e-28
1.59881e-27
2.28642e-26
3.06741e-25
3.67173e-24
3.79655e-23
3.35309e-22
2.36966e-21
1.17054e-20
2.01021e-19
1.33792e-18
2.53683e-17
5.96621e-16
7.55089e-15
1.8137e-14
1.50289e-14
5.45818e-33
3.19934e-34
8.91586e-37
1.70001e-35
1.21406e-33
4.11346e-32
9.33585e-31
1.76981e-29
2.93437e-28
4.45148e-27
6.31889e-26
8.09708e-25
9.0775e-24
8.56349e-23
6.47549e-22
3.4879e-21
5.66674e-20
3.46986e-19
1.37403e-17
4.25471e-16
3.93768e-15
3.16487e-15
-4.25474e-15
2.4632e-34
1.56979e-35
4.52808e-38
2.21837e-36
1.68862e-34
5.76525e-33
1.39635e-31
2.85982e-30
5.09056e-29
8.19122e-28
1.22642e-26
1.6795e-25
2.033e-24
2.04876e-23
1.66489e-22
9.74577e-22
1.34158e-20
8.26576e-20
7.16634e-18
2.7455e-16
5.7557e-16
-1.59417e-15
-1.26516e-14
9.24717e-36
6.24217e-37
2.18799e-39
2.99844e-37
2.17169e-35
7.56814e-34
1.96617e-32
4.34268e-31
8.29587e-30
1.41814e-28
2.23666e-27
3.26445e-26
4.25694e-25
4.59124e-24
3.97493e-23
2.58347e-22
2.76124e-21
1.79993e-20
3.58717e-18
1.20987e-16
-2.1952e-16
-3.55579e-15
-1.42564e-14
2.91114e-37
2.06708e-38
1.91379e-40
3.72663e-38
2.56645e-36
9.24487e-35
2.58565e-33
6.14952e-32
1.26156e-30
2.29682e-29
3.81689e-28
5.92105e-27
8.30879e-26
9.58545e-25
8.75787e-24
6.83902e-23
4.77805e-22
2.7544e-21
1.82993e-18
1.52116e-17
-5.06553e-16
-3.81576e-15
-1.18259e-14
7.79321e-39
5.70836e-40
2.97071e-41
4.18054e-39
2.76678e-37
1.04313e-35
3.14904e-34
8.0583e-33
1.77766e-31
3.45638e-30
6.06108e-29
9.97561e-28
1.5039e-26
1.85512e-25
1.77343e-24
2.02688e-23
1.20219e-23
-6.25076e-22
7.93856e-19
-4.03669e-18
-5.61963e-16
-3.13066e-15
-8.01626e-15
1.80553e-40
1.33472e-41
2.76351e-42
4.17424e-40
2.7012e-38
1.07829e-36
3.52054e-35
9.69501e-34
2.30354e-32
4.79547e-31
8.89547e-30
1.55227e-28
2.50849e-27
3.3107e-26
3.31476e-25
5.76583e-24
-8.15214e-23
-2.06874e-21
3.27511e-20
-9.49719e-18
-4.66536e-16
-2.15818e-15
-4.52011e-15
3.67804e-42
2.68467e-43
2.17966e-43
3.66931e-41
2.36986e-39
1.01176e-37
3.57911e-36
1.06195e-34
2.72214e-33
6.08032e-32
1.19683e-30
2.2149e-29
3.82996e-28
5.41139e-27
5.81916e-26
1.0638e-24
-1.29994e-22
-2.91189e-21
-1.63018e-19
-1.0876e-17
-3.2293e-16
-1.29341e-15
-2.07059e-15
6.65203e-44
5.04113e-45
1.53245e-44
2.81078e-42
1.85174e-40
8.52551e-39
3.27443e-37
1.04894e-35
2.90517e-34
6.9742e-33
1.46174e-31
2.87219e-30
5.31103e-29
8.03435e-28
1.00393e-26
4.9343e-26
-1.33744e-22
-3.03892e-21
-2.41205e-19
-9.27353e-18
-1.93583e-16
-6.8422e-16
-7.26953e-16
1.06808e-45
8.52602e-47
1.04794e-45
1.85588e-43
1.27423e-41
6.36956e-40
2.66314e-38
9.23553e-37
2.76736e-35
7.14954e-34
1.60113e-32
3.34796e-31
6.62295e-30
1.07537e-28
1.74305e-27
-9.05318e-26
-1.0834e-22
-2.62195e-21
-2.27487e-19
-6.47422e-18
-1.02233e-16
-3.21023e-16
-1.83029e-16
1.503e-47
1.30817e-48
6.16594e-47
1.04268e-44
7.60845e-43
4.15271e-41
1.89668e-39
7.14147e-38
2.31807e-36
6.45303e-35
1.54927e-33
3.4599e-32
7.33213e-31
1.30996e-29
1.71865e-28
-1.2995e-25
-7.35439e-23
-1.93163e-21
-1.65646e-19
-3.82252e-18
-4.78928e-17
-1.32587e-16
-3.86517e-17
1.8003e-49
1.89035e-50
2.97396e-48
4.89493e-46
3.86255e-44
2.3142e-42
1.15975e-40
4.75443e-39
1.67432e-37
5.02955e-36
1.29879e-34
3.11423e-33
7.09107e-32
1.53213e-30
-2.78384e-29
-1.12046e-25
-4.27621e-23
-1.22732e-21
-9.84475e-20
-1.92871e-18
-1.98566e-17
-4.65625e-17
-1.02618e-17
1.74554e-51
2.81734e-52
1.13304e-49
1.86852e-47
1.61926e-45
1.07166e-43
5.92446e-42
2.65074e-40
1.01511e-38
3.29743e-37
9.19435e-36
2.38502e-34
5.8947e-33
1.31227e-31
-5.84359e-29
-7.3372e-26
-2.13551e-23
-6.71793e-22
-4.86916e-20
-8.29984e-19
-7.20519e-18
-1.22539e-17
-5.74903e-18
1.26539e-53
4.60938e-54
3.25403e-51
5.55305e-49
5.36392e-47
3.9583e-45
2.4288e-43
1.18863e-41
4.96883e-40
1.75147e-38
5.30515e-37
1.50526e-35
4.24969e-34
-2.66174e-33
-5.03109e-29
-3.83896e-26
-9.09495e-24
-3.1383e-22
-2.00394e-20
-3.01448e-19
-2.24596e-18
-8.49757e-19
-8.3117e-18
6.00978e-56
7.09217e-56
6.53086e-53
1.1912e-50
1.30619e-48
1.09255e-46
7.4924e-45
4.02377e-43
1.8478e-41
7.11337e-40
2.36816e-38
7.48e-37
2.4299e-35
-1.33147e-32
-2.94375e-29
-1.62118e-26
-3.25063e-24
-1.2297e-22
-6.78407e-21
-9.07978e-20
-5.86991e-19
1.74286e-18
-1.35659e-17
1.24705e-58
8.21763e-58
7.84283e-55
1.58172e-52
2.04018e-50
1.99709e-48
1.54542e-46
9.18583e-45
4.68581e-43
1.99863e-41
7.5131e-40
2.75442e-38
5.76541e-38
-1.03527e-32
-1.26906e-29
-5.45387e-27
-9.50209e-25
-3.93447e-23
-1.84649e-21
-2.21267e-20
-1.24846e-19
1.62877e-18
-1.83292e-17
4.10394e-62
4.35897e-60
3.48794e-57
8.49059e-55
1.45197e-52
1.795e-50
1.60673e-48
1.08814e-46
6.33825e-45
3.1434e-43
1.44207e-41
6.34846e-40
-7.03493e-37
-4.65829e-33
-4.01472e-30
-1.41421e-27
-2.18385e-25
-9.8698e-24
-3.89998e-22
-4.2105e-21
-2.07936e-20
5.00931e-19
-1.61564e-17
2.40887e-67
1.20306e-64
1.27415e-61
6.1308e-59
1.93424e-56
3.98395e-54
7.79052e-52
1.18287e-49
1.3016e-47
1.31728e-45
1.13607e-43
-2.24958e-41
-4.05576e-37
-1.31646e-33
-8.86562e-31
-2.65788e-28
-3.70375e-26
-1.81939e-24
-6.03562e-23
-5.91643e-22
-2.56429e-21
7.91217e-23
-1.03425e-19
7.9976e-79
1.04553e-74
3.90963e-71
6.90348e-68
7.84327e-65
6.07372e-62
3.99486e-59
1.95049e-56
6.53435e-54
2.16195e-51
5.35163e-49
-1.93631e-41
-9.77614e-38
-2.15475e-34
-1.21872e-31
-3.21888e-29
-4.12628e-27
-2.19061e-25
-6.13552e-24
-5.52755e-23
-2.11576e-22
-2.27362e-24
-1.19041e-19
0
1.11301e-88
1.10695e-84
2.23413e-81
-1.67524e-74
5.80613e-76
-1.14934e-67
-1.42474e-68
-1.7789e-61
-2.66862e-62
-2.20333e-63
-1.99705e-42
-8.01151e-39
-1.51187e-35
-7.7248e-33
-1.88126e-30
-2.27122e-28
-1.29397e-26
-3.0907e-25
-2.61945e-24
-8.95828e-24
-3.68738e-25
-8.74312e-20
0.955103
0.948543
0.946716
0.942097
0.480866
0.516443
0.471487
0.324516
4.44812e-10
3.66448e-10
2.36353e-10
9.3986e-11
6.06131e-09
4.30391e-09
1.68243e-09
7.16024e-10
7.64649e-09
6.48529e-09
2.35134e-09
1.02127e-09
2.9201e-13
2.86849e-13
1.50725e-11
1.87833e-10
5.79314e-13
6.78049e-13
7.00631e-13
7.01719e-13
2.30449e-13
4.28359e-13
7.82598e-13
1.1895e-12
1.7849e-13
3.79981e-13
7.38753e-13
1.14459e-12
2.79585e-13
5.83285e-13
1.04522e-12
1.84857e-12
3.64563e-13
7.05736e-13
1.30559e-12
3.86037e-12
3.98648e-13
7.65951e-13
1.89806e-12
1.36546e-11
4.02752e-13
9.37319e-13
7.52076e-12
5.25713e-11
5.08473e-13
4.5892e-12
3.8426e-11
1.17217e-10
1.88955e-12
2.58295e-11
9.5939e-11
1.47884e-10
4.81031e-12
6.02423e-11
1.23768e-10
1.0886e-10
6.59616e-12
6.6235e-11
1.23768e-10
4.84015e-11
6.35586e-12
5.87706e-11
7.9656e-11
2.4168e-11
3.43264e-12
2.84806e-11
2.43201e-11
9.56056e-12
2.09802e-12
8.07628e-12
4.39829e-12
3.11729e-12
7.90392e-13
1.59785e-12
8.14248e-13
8.40197e-13
1.13367e-13
1.65405e-13
1.02025e-13
4.20527e-13
-8.8863e-15
-8.90717e-19
1.85651e-16
1.6361e-12
-4.28586e-14
-1.62656e-16
2.41335e-15
9.81948e-12
-4.64729e-14
-3.58026e-20
-1.95794e-13
5.0273e-11
-3.22196e-14
-2.90876e-15
1.98966e-13
4.76693e-08
-1.42311e-14
-6.0426e-14
3.59185e-13
8.50376e-08
-2.37853e-15
-1.3101e-14
-4.68764e-12
5.17977e-09
-2.98046e-16
-2.47942e-12
-2.45641e-11
2.22381e-08
-2.99393e-18
-3.33016e-12
-3.21016e-09
9.07683e-08
-1.01097e-17
-1.69372e-11
-1.36525e-09
2.36079e-05
-7.37391e-17
-8.15534e-12
8.25073e-07
7.97863e-05
-5.96327e-18
-9.21121e-12
1.21585e-05
7.95117e-05
-4.17252e-16
1.14169e-08
1.73314e-05
7.92062e-05
2.15241e-14
4.79566e-10
7.01589e-06
3.64024e-05
1.92632e-12
2.16533e-09
1.26521e-10
1.03734e-08
-3.14979e-17
-1.61559e-28
0
1.44787e-09
-1.37579e-16
-3.38377e-14
-4.48257e-17
2.2377e-07
-2.53042e-17
-7.51103e-14
-1.20546e-16
3.44304e-07
-3.81476e-17
-4.43388e-15
0
1.45765e-08
-5.79729e-17
-5.67146e-15
1.75718e-15
-8.57146e-16
-5.07993e-17
-5.00096e-15
2.41946e-15
1.62052e-25
0.684817
0.0261742
0.000223466
2.5433e-05
2.4726e-06
2.604e-07
9.54517e-08
0.000610372
0.0103316
0.108961
0.112464
0.110356
0.0350213
0.000705701
2.97552e-05
2.25571e-05
2.61453e-05
2.20827e-05
1.15933e-05
-1.51362e-05
-2.23114e-06
-9.19451e-09
-1.52431e-07
4.3469e-08
7.62379e-08
5.97349e-08
9.54517e-08
2.30746e-06
0.0586095
0.0979492
0.0247563
0.000996928
0.000510366
7.7366e-05
1.72115e-05
1.41457e-05
1.15119e-05
5.95785e-06
3.54566e-11
-6.17967e-10
-4.13334e-12
3.23412e-10
5.42407e-08
5.71162e-08
4.68411e-08
5.93013e-08
1.11747e-05
0.0118089
0.00874413
0.00155331
0.00128183
0.00120654
0.000126013
1.42144e-05
7.5557e-06
5.91971e-06
3.0355e-06
6.3634e-10
-1.64737e-13
4.32789e-11
1.48846e-07
3.05617e-07
2.64124e-07
1.27251e-08
1.08335e-08
5.60659e-05
0.00278004
0.00359124
0.00151826
0.00113347
0.00127452
0.000115614
8.22716e-06
4.10344e-06
3.01955e-06
1.53677e-06
7.78188e-10
1.95492e-11
9.96976e-09
3.05617e-07
3.11604e-07
1.81851e-07
-3.97535e-10
-2.76195e-09
0.0121463
0.0503537
0.0360997
0.00158804
0.000889322
0.00083994
0.000132771
5.766e-06
2.2329e-06
1.5353e-06
7.7468e-07
1.82786e-10
2.02865e-11
2.88862e-11
5.28535e-08
1.30115e-07
1.80818e-09
-1.70965e-13
-1.26402e-05
0.066864
0.0754424
0.0761216
0.0291737
0.00100892
0.000164241
0.000182062
3.64667e-06
1.21486e-06
7.78183e-07
3.89724e-07
7.66151e-13
1.32012e-11
2.05604e-11
2.88862e-11
2.79295e-11
8.59379e-12
-8.26514e-09
0.0101208
0.0754424
0.0762167
0.0761216
0.0680299
0.00392264
0.000139223
0.000185305
1.71077e-06
6.79832e-07
3.94399e-07
1.96312e-07
3.34928e-12
3.28824e-11
1.51088e-10
3.44901e-10
4.29476e-10
2.8853e-10
-7.11467e-09
0.0132388
0.0712511
0.0754424
0.076176
0.0753575
0.00800542
8.74921e-05
0.000146275
1.76382e-06
3.82915e-07
1.99314e-07
9.91126e-08
5.69361e-12
4.5778e-11
1.88047e-10
5.89795e-10
7.04324e-10
4.53363e-10
-1.11286e-09
0.000834762
0.0151444
0.0729002
0.0753575
0.0646534
0.00610723
4.92174e-05
2.99533e-05
2.04883e-06
2.55507e-07
9.99853e-08
5.00748e-08
1.16546e-11
6.60773e-11
2.03491e-10
6.38703e-10
7.24238e-10
4.77513e-10
-7.66198e-27
7.31208e-11
1.42056e-08
0.0286427
0.0540729
0.00419293
0.000498056
0.000153564
1.79552e-05
2.05311e-06
1.8469e-07
5.02641e-08
2.54512e-08
2.96054e-11
9.63866e-11
2.0473e-10
7.70903e-10
1.51402e-09
7.80979e-10
7.31208e-11
3.71765e-10
7.391e-08
6.81929e-05
0.00111332
0.00110509
0.000405337
0.000576758
2.23151e-05
1.90188e-06
1.37133e-07
2.54512e-08
1.31425e-08
7.52806e-11
1.35756e-10
1.76378e-10
1.07107e-09
5.00078e-09
2.76772e-09
5.00553e-10
1.34947e-09
4.24383e-07
0.000280162
0.000819313
0.000451681
0.000411026
0.000562781
1.85471e-05
1.733e-06
1.15204e-07
1.47173e-08
6.99294e-09
1.39183e-10
1.65509e-10
2.01457e-10
1.13743e-09
6.96466e-09
5.08289e-09
2.26017e-09
-8.31418e-08
2.65564e-06
0.00825687
0.00179044
0.00134032
0.000309298
0.000347144
1.55131e-05
1.33574e-06
9.67524e-08
9.57984e-09
3.92541e-09
1.68229e-10
1.82314e-10
4.00723e-10
2.23464e-09
7.45597e-09
5.05471e-09
3.08422e-09
-1.73739e-06
8.06831e-06
0.0732609
0.0312937
0.00193765
0.000190668
3.51369e-05
2.21755e-05
7.40319e-07
8.37565e-08
7.40255e-09
2.47174e-09
1.559e-10
1.6095e-10
1.26763e-09
6.74221e-09
1.19411e-08
6.67188e-09
4.14265e-09
-1.55152e-07
0.0418455
0.0868723
0.0800326
0.00489422
4.12459e-05
1.68602e-05
2.5081e-05
5.67499e-07
6.81039e-08
6.0056e-09
1.64262e-09
9.63698e-11
1.74e-10
7.23441e-09
3.46223e-08
3.69871e-08
1.57658e-08
6.67328e-09
-6.42245e-09
0.0852862
0.0871064
0.0872541
0.0110052
3.10269e-05
1.55773e-05
1.46123e-05
6.37944e-07
5.48079e-08
4.45172e-09
1.16522e-09
4.67536e-11
2.40798e-10
4.6007e-08
2.01312e-07
1.73847e-07
6.02082e-08
1.57688e-08
0.010219
0.0868888
0.0873405
0.087252
0.0210938
3.799e-05
1.66302e-05
1.72022e-06
6.93823e-07
4.38823e-08
3.32906e-09
8.48358e-10
9.27711e-12
6.6323e-10
2.72183e-07
1.14906e-06
8.90304e-07
3.02381e-07
5.23443e-08
0.0360944
0.0851289
0.0868888
0.087252
0.0332716
4.24217e-05
3.69858e-06
1.60146e-06
5.54707e-07
3.4043e-08
2.46539e-09
6.07436e-10
-1.29891e-10
1.43382e-08
1.53641e-06
8.39533e-06
4.50239e-06
1.75569e-06
2.29511e-07
0.00623324
0.0460622
0.0851289
0.0860497
0.0359665
4.40708e-05
3.08758e-06
1.72537e-06
3.75632e-07
2.68286e-08
1.84335e-09
4.43597e-10
-7.43564e-10
8.08945e-08
4.77077e-05
0.000292465
0.000209666
2.55892e-05
2.75331e-06
7.02816e-06
1.18684e-05
0.024611
0.0341806
0.0154624
0.000209312
2.93067e-06
1.74306e-06
2.32506e-07
2.10849e-08
1.41407e-09
3.29371e-10
-4.23061e-10
3.93978e-06
0.000452092
0.000543975
0.00054534
0.00019609
0.000268592
0.000142765
2.86224e-05
3.88158e-05
3.88459e-05
0.000619252
0.000690469
1.58637e-05
1.9885e-06
1.70057e-07
1.63462e-08
1.12284e-09
2.46911e-10
-2.09407e-09
0.00035277
0.000543975
0.000545671
0.00054534
0.000436565
5.93117e-05
5.66204e-05
4.85271e-05
4.10552e-05
3.87132e-05
0.00094407
0.000807523
2.3517e-05
1.96951e-06
1.50473e-07
1.28554e-08
9.04173e-10
1.8551e-10
7.59048e-06
0.000529217
0.000537835
0.000543975
0.00054534
0.000476607
6.62053e-05
5.8986e-05
5.73854e-05
4.85271e-05
4.159e-05
0.00162872
0.000573827
1.87737e-05
1.81076e-06
1.48627e-07
9.96408e-09
7.09006e-10
1.39355e-10
1.93071e-05
0.000513488
0.000529217
0.000537835
0.000528098
0.000179871
5.73623e-05
6.14811e-05
0.000118674
8.39624e-05
9.76707e-05
0.00169253
0.00066275
1.37302e-05
1.40311e-06
1.37452e-07
7.04219e-09
5.43323e-10
1.04472e-10
1.13406e-08
0.000324313
0.000513488
0.000340651
5.58902e-05
3.49806e-05
3.66975e-05
4.67181e-05
0.000428642
0.000244517
0.00196307
0.00174432
0.000643561
1.27665e-05
8.73104e-07
9.99694e-08
4.61351e-09
4.15271e-10
7.79995e-11
3.67934e-08
0.000202773
0.000210465
3.43082e-05
3.4277e-05
3.42104e-05
3.48946e-05
0.011232
0.00314168
0.00379785
0.00422429
0.00103079
0.00052167
2.63774e-06
5.55185e-07
6.62929e-08
2.91723e-09
3.18533e-10
5.7894e-11
1.09217e-07
0.000136442
3.97077e-05
3.4277e-05
3.42101e-05
3.42105e-05
0.00240137
0.0749031
0.0500591
0.010853
0.00399987
0.000476429
0.000258369
2.0968e-07
6.13474e-08
3.99665e-08
1.90346e-09
2.46378e-10
4.26501e-11
1.9496e-07
2.81547e-05
3.6365e-05
3.87287e-05
3.78452e-05
3.42101e-05
0.0318396
0.0862748
0.088584
0.013908
0.00200613
0.00133559
4.54177e-06
8.72646e-08
2.09554e-08
1.73081e-08
1.40306e-09
1.92552e-10
3.11388e-11
5.34106e-07
9.58096e-06
0.000455511
0.00012599
4.10734e-05
3.55243e-05
0.0339283
0.0885556
0.0885556
0.019564
0.0014469
0.00167181
-4.43794e-07
7.55367e-09
1.14797e-08
6.46516e-09
1.09695e-09
1.51486e-10
2.25038e-11
4.4216e-06
5.97905e-06
0.00311152
0.000299065
4.93537e-05
4.0727e-05
8.03635e-05
0.0725717
0.0889341
0.0483846
0.00129127
0.000739762
-6.22542e-07
-4.10124e-08
5.19863e-09
3.51456e-09
8.86031e-10
1.18779e-10
1.60823e-11
6.18178e-05
1.34486e-05
0.00325171
0.000362312
8.84663e-05
8.03635e-05
0.000444702
0.0658641
0.0885556
0.0778603
0.00176841
1.15324e-05
8.57561e-08
-1.20722e-08
2.38032e-09
2.48416e-09
7.15074e-10
9.21736e-11
1.13553e-11
7.97863e-05
4.23944e-06
0.00303745
0.00461254
0.000336079
0.000444702
0.0489659
0.0870565
0.087729
0.0630176
0.00177426
2.32263e-06
3.28236e-08
5.35996e-09
2.04655e-09
1.92323e-09
5.65054e-10
7.05919e-11
7.91521e-12
8.0044e-05
1.24003e-06
0.000332777
0.0145054
0.0185623
0.0456453
0.0859292
0.0863766
0.0870565
0.0181629
0.000885577
9.51332e-07
1.59056e-08
2.87763e-09
1.76823e-09
1.54064e-09
4.33539e-10
5.33149e-11
5.44241e-12
7.30265e-05
1.11262e-07
7.48083e-07
0.00445693
0.0598672
0.0831831
0.0846249
0.0859292
0.031261
0.00105563
0.000800722
3.64967e-07
-6.00081e-09
1.84526e-09
1.22512e-09
1.22189e-09
3.23886e-10
3.97072e-11
3.68831e-12
8.84256e-06
2.88953e-09
5.01346e-09
9.07362e-05
0.0095481
0.05913
0.0681735
0.0253642
0.000114436
0.00118119
1.34145e-05
6.75145e-09
-2.97399e-09
8.58703e-10
8.72028e-10
9.29095e-10
2.36704e-10
2.91636e-11
2.46155e-12
2.81648e-09
2.88953e-09
2.88953e-09
2.34732e-08
6.25619e-08
4.79886e-07
8.83946e-06
2.91479e-05
3.92444e-05
0.000116459
9.23596e-07
-2.79135e-08
-1.04479e-08
6.03741e-10
5.24563e-10
6.82843e-10
1.6963e-10
2.11223e-11
1.61661e-12
9.55901e-08
2.85622e-09
2.94189e-09
3.17282e-07
1.65955e-06
1.93703e-06
3.88456e-06
4.92928e-05
0.000396846
2.42644e-05
3.50534e-07
2.61169e-08
-4.05301e-09
3.44606e-10
3.8603e-10
4.94258e-10
1.19385e-10
1.50861e-11
1.04382e-12
4.76329e-07
3.76187e-09
1.97367e-09
5.12853e-07
1.01387e-05
8.15228e-06
8.73308e-05
0.000401634
0.000401634
5.49675e-06
1.32066e-07
9.27831e-09
4.52258e-10
2.57598e-10
3.12485e-10
3.53158e-10
8.26014e-11
1.06242e-11
6.63237e-13
4.76329e-07
6.53836e-09
-6.04782e-11
3.0912e-08
2.24883e-06
1.0959e-05
0.000115147
0.000222121
0.000224222
1.00341e-06
4.66485e-08
3.10926e-09
2.19849e-10
1.96906e-10
2.50399e-10
2.49617e-10
5.63362e-11
7.38889e-12
4.10348e-13
3.12152e-07
2.81216e-09
3.17524e-12
4.59963e-11
2.93855e-09
5.09448e-07
8.22997e-07
1.31549e-05
2.93911e-06
5.59567e-07
1.64363e-08
1.20079e-09
1.48539e-10
1.50624e-10
1.92482e-10
1.72658e-10
3.76131e-11
5.03503e-12
2.63677e-13
-4.77382e-18
1.20768e-10
7.2232e-14
2.9282e-12
2.89942e-10
3.37646e-08
1.13736e-06
1.04927e-06
3.72203e-07
9.09227e-08
5.35893e-09
5.32723e-10
1.30524e-10
1.17579e-10
1.5376e-10
1.22008e-10
2.58862e-11
3.52625e-12
1.00472e-13
-3.34555e-27
0
-3.10725e-15
-9.24326e-14
-2.45711e-13
1.30753e-07
1.04449e-06
9.40882e-07
1.24458e-07
3.99863e-08
1.73155e-09
2.4218e-10
1.17841e-10
1.11782e-10
1.07939e-10
6.56194e-11
1.35201e-11
1.88166e-12
9.39396e-14
)
;

boundaryField
{
    leftWall
    {
        type            zeroGradient;
    }
    rightWall
    {
        type            zeroGradient;
    }
    lowerWall
    {
        type            zeroGradient;
    }
    atmosphere
    {
        type            inletOutlet;
        inletValue      uniform 0;
        value           nonuniform List<scalar> 
46
(
0
0
0
0
0
0
0
0
0
0
0
0
0
0
0
0
0
0
0
0
0
0
0
0
0
0
0
0
0
0
0
0
0
0
9.40882e-07
1.24458e-07
3.99863e-08
1.73155e-09
2.4218e-10
1.17841e-10
1.11782e-10
1.07939e-10
6.56194e-11
1.35201e-11
1.88166e-12
9.39396e-14
)
;
    }
    defaultFaces
    {
        type            empty;
    }
}


// ************************************************************************* //
