/*--------------------------------*- C++ -*----------------------------------*\
| =========                 |                                                 |
| \\      /  F ield         | OpenFOAM: The Open Source CFD Toolbox           |
|  \\    /   O peration     | Version:  2206                                  |
|   \\  /    A nd           | Website:  www.openfoam.com                      |
|    \\/     M anipulation  |                                                 |
\*---------------------------------------------------------------------------*/
FoamFile
{
    version     2.0;
    format      ascii;
    arch        "LSB;label=32;scalar=64";
    class       volScalarField;
    location    "0.55";
    object      p;
}
// * * * * * * * * * * * * * * * * * * * * * * * * * * * * * * * * * * * * * //

dimensions      [1 -1 -2 0 0 0 0];

internalField   nonuniform List<scalar> 
2268
(
1407.19
1406.98
1407.04
1407.47
1408.33
1409.57
1411.07
1412.75
1414.55
1416.42
1418.34
1420.25
1422.11
1423.87
1425.5
1426.96
1428.18
1429.15
1429.82
1430.07
1429.95
1428.53
1425.07
1227
1226.56
1226.58
1226.99
1228.05
1229.48
1231.18
1233.04
1235.03
1237.09
1239.19
1241.29
1243.35
1245.32
1247.16
1248.82
1250.23
1251.36
1252.18
1252.03
1252.67
1248.53
1249.96
1045.18
1044.76
1044.79
1045.4
1046.5
1048.22
1050.33
1052.66
1055.1
1057.58
1060.07
1062.53
1064.91
1067.18
1069.31
1071.28
1073.03
1074.59
1075.92
1077.01
1077.92
1077.12
1080.67
861.165
860.808
860.862
861.532
863.122
865.497
868.357
871.446
874.615
877.771
880.855
883.826
886.651
889.308
891.776
894.048
896.111
898.018
899.759
901.427
903.119
905.155
908.254
673.533
673.489
674.112
675.533
678.106
681.57
685.545
689.717
693.87
697.877
701.688
705.279
708.639
711.725
714.545
717.109
719.416
721.513
723.38
725.084
726.723
728.326
730.114
479.504
479.232
481.989
485.476
489.729
494.877
500.582
506.434
512.147
517.491
522.396
526.845
530.87
534.492
537.701
540.533
543.053
545.303
547.253
548.925
550.271
551.263
552.415
282.833
280.938
286.435
293.323
300.365
307.948
315.777
323.522
330.918
337.556
343.487
348.801
353.483
357.451
360.807
363.801
366.518
368.952
371.165
373.107
374.331
375.142
375.553
93.6244
95.3433
102.639
114.583
121.955
128.949
136.464
144.303
152.633
160.643
167.212
172.124
176.91
180.626
183.675
186.335
188.606
191.095
194.167
197.192
199.884
202.566
203.006
135.437
115.244
53.7643
89.1567
358.443
700.942
829.914
806.954
731.251
562.319
299.837
96.6232
58.5171
53.5011
65.1337
66.2327
64.5954
66.1438
68.9533
47.6002
4.34188
4.82889
15.4345
60.2455
355.478
479.242
433.522
338.217
169.711
63.3713
18.4739
4.16088
-1.77488
-1.96452
10.5335
40.9707
58.5993
66.4341
14.2556
4.06927
7.30862
12.2813
18.513
120.233
174.961
90.9811
48.1556
40.6324
21.9344
8.0043
1.13272
-2.57677
-5.18881
-4.59608
5.85992
31.3379
43.6898
16.5167
13.3379
11.3866
13.7176
14.3912
25.1703
27.2327
11.9405
13.0628
18.4569
12.7786
3.55578
-1.69505
-5.33863
-8.46542
-9.24779
-7.85377
3.1653
15.9906
19.8185
19.3756
18.8414
12.906
11.3971
7.8871
8.19394
8.45905
10.1375
11.8951
6.07751
-0.742325
-3.24317
-5.53126
-7.66536
-8.93513
-8.32884
-4.46759
2.76191
20.5346
19.9063
12.8291
4.85865
5.00956
4.91783
5.39302
5.99673
7.62942
6.35854
1.90755
-3.55068
-3.64528
-4.00505
-4.98442
-5.8159
-5.40633
-3.1963
0.181814
20.3642
19.5521
7.11664
3.77256
2.69791
3.13346
3.57848
3.99682
4.40851
3.85208
1.767
-2.81206
-3.67939
-2.35595
-2.62781
-2.76053
-2.23861
-0.881435
0.176489
-34.0112
-0.79314
11.2354
0.77118
1.37457
2.04472
2.41364
2.70481
2.5617
-0.195819
-0.98106
-2.72212
-2.96856
-2.16279
-1.76202
-1.50458
-1.05683
-0.318776
-0.193964
6.86812
7.48822
10.1935
14.364
17.9133
21.1696
24.7425
28.3468
33.2896
39.0873
43.9698
47.8588
49.1416
49.7452
51.3587
52.9486
53.5917
55.6352
59.8031
63.7533
67.6484
73.361
81.7448
0.249821
-0.171706
-0.774362
-0.971217
-0.591183
-0.0573889
0.497919
1.43301
2.38114
3.12694
3.381
3.3067
2.93847
2.82377
3.5492
4.43604
4.69711
5.22618
6.78541
8.2893
9.55235
11.2546
14.9429
-0.27054
-0.467576
-0.728807
-0.870503
-0.839822
-0.814656
-0.885147
-0.906377
-0.840288
-0.80175
-0.781279
-0.766516
-0.746742
-0.722972
-0.699954
-0.671449
-0.64621
-0.619626
-0.596569
-0.560609
-0.520171
-0.493126
-0.491796
-0.578269
-0.652866
-0.754308
-0.835289
-0.859971
-0.874725
-0.916598
-0.936924
-0.907263
-0.87416
-0.856814
-0.846748
-0.833253
-0.813809
-0.792474
-0.770781
-0.747967
-0.7244
-0.700591
-0.671217
-0.639349
-0.616256
-0.608961
-0.732254
-0.760189
-0.802848
-0.845997
-0.874352
-0.898262
-0.927381
-0.953324
-0.956236
-0.947147
-0.938348
-0.930373
-0.919643
-0.904958
-0.887702
-0.868897
-0.848476
-0.826885
-0.805391
-0.784027
-0.763183
-0.746502
-0.738128
-0.860311
-0.870193
-0.888637
-0.913485
-0.941475
-0.969568
-0.998149
-1.02184
-1.03321
-1.03365
-1.02915
-1.02264
-1.01383
-1.00209
-0.98792
-0.972204
-0.955287
-0.937489
-0.919366
-0.901021
-0.883166
-0.86845
-0.859571
-0.990836
-0.994539
-1.00126
-1.01565
-1.03619
-1.06065
-1.08534
-1.10557
-1.11775
-1.12184
-1.12057
-1.11626
-1.10961
-1.10059
-1.08942
-1.07657
-1.06237
-1.04716
-1.03154
-1.01621
-1.00178
-0.989164
-0.979484
-1.12116
-1.12284
-1.1234
-1.13076
-1.14568
-1.16596
-1.18689
-1.20403
-1.21507
-1.21996
-1.22017
-1.21729
-1.21215
-1.20502
-1.19605
-1.18555
-1.1738
-1.16115
-1.14799
-1.13478
-1.12199
-1.11027
-1.10039
-1.25119
-1.25233
-1.25053
-1.25417
-1.26503
-1.28114
-1.29785
-1.31137
-1.3201
-1.32421
-1.32468
-1.32258
-1.31856
-1.3129
-1.30572
-1.29717
-1.28747
-1.27684
-1.26563
-1.25424
-1.24307
-1.23256
-1.22309
-1.38179
-1.38254
-1.3805
-1.38215
-1.3901
-1.40256
-1.41533
-1.42536
-1.43166
-1.43454
-1.43479
-1.4331
-1.42992
-1.42542
-1.41966
-1.41272
-1.4047
-1.39581
-1.38629
-1.37645
-1.36661
-1.35709
-1.34821
-1.51325
-1.51375
-1.51209
-1.51277
-1.51865
-1.52808
-1.53739
-1.54429
-1.54831
-1.54989
-1.54967
-1.54814
-1.54553
-1.54189
-1.53722
-1.53153
-1.52487
-1.5174
-1.5093
-1.50082
-1.49225
-1.48385
-1.47588
-1.64553
-1.6459
-1.64469
-1.64496
-1.64938
-1.65634
-1.66275
-1.66702
-1.6691
-1.66953
-1.66886
-1.66737
-1.66515
-1.66215
-1.65832
-1.6536
-1.64805
-1.64177
-1.63491
-1.62768
-1.62032
-1.61306
-1.60614
-1.77838
-1.77864
-1.77784
-1.77811
-1.78156
-1.78658
-1.79065
-1.79283
-1.7934
-1.79295
-1.7919
-1.79041
-1.78845
-1.78591
-1.78269
-1.77874
-1.77408
-1.76881
-1.76305
-1.75697
-1.75079
-1.74473
-1.73898
-1.91175
-1.91183
-1.91141
-1.91197
-1.91484
-1.91836
-1.92062
-1.92125
-1.92075
-1.9197
-1.9184
-1.91692
-1.91514
-1.91293
-1.91018
-1.90684
-1.90294
-1.89855
-1.89378
-1.88879
-1.88377
-1.8789
-1.87439
-2.04582
-2.04564
-2.04556
-2.04657
-2.04908
-2.05146
-2.0524
-2.05197
-2.0508
-2.04942
-2.04802
-2.04657
-2.04493
-2.04298
-2.04061
-2.03779
-2.03455
-2.03096
-2.02712
-2.02317
-2.01927
-2.01562
-2.01239
-2.18086
-2.18039
-2.1806
-2.18202
-2.18427
-2.18578
-2.18582
-2.18476
-2.18328
-2.1818
-2.18041
-2.17903
-2.17754
-2.17581
-2.17378
-2.17144
-2.16881
-2.16598
-2.16302
-2.16008
-2.15732
-2.15489
-2.15296
-2.31701
-2.31634
-2.31676
-2.31844
-2.32042
-2.32129
-2.32077
-2.31945
-2.31794
-2.31653
-2.31524
-2.31399
-2.31265
-2.31116
-2.30947
-2.30759
-2.30557
-2.30346
-2.30139
-2.29946
-2.29783
-2.29666
-2.2961
-2.45421
-2.45354
-2.45408
-2.45585
-2.45753
-2.45796
-2.4572
-2.45589
-2.45453
-2.45331
-2.4522
-2.45111
-2.44998
-2.44875
-2.44743
-2.44602
-2.4446
-2.44324
-2.44204
-2.44114
-2.44069
-2.44084
-2.44173
-2.59227
-2.59179
-2.59242
-2.59417
-2.59559
-2.59578
-2.59502
-2.5939
-2.59282
-2.59186
-2.59098
-2.59011
-2.58923
-2.58832
-2.58739
-2.58649
-2.58569
-2.58507
-2.58477
-2.58493
-2.58571
-2.58727
-2.58974
-2.7309
-2.73074
-2.73154
-2.73329
-2.73456
-2.7347
-2.73411
-2.73332
-2.73258
-2.73193
-2.73133
-2.73074
-2.73016
-2.72962
-2.72913
-2.72876
-2.7286
-2.72875
-2.72937
-2.73061
-2.73267
-2.73572
-2.73992
-2.86978
-2.87003
-2.8712
-2.87309
-2.87436
-2.87463
-2.87436
-2.87397
-2.87363
-2.87333
-2.87305
-2.87279
-2.87258
-2.87244
-2.87243
-2.87262
-2.87312
-2.87405
-2.8756
-2.87794
-2.8813
-2.88591
-2.89195
-3.00876
-3.00943
-3.01126
-3.0135
-3.01494
-3.0155
-3.01564
-3.01571
-3.01579
-3.01589
-3.01598
-3.0161
-3.01629
-3.0166
-3.0171
-3.01788
-3.01905
-3.02078
-3.02325
-3.02668
-3.03134
-3.03751
-3.04541
-3.14783
-3.14887
-3.15171
-3.15452
-3.15626
-3.15723
-3.15786
-3.15841
-3.15895
-3.15947
-3.15997
-3.16051
-3.16115
-3.16195
-3.16299
-3.16437
-3.16623
-3.16875
-3.17212
-3.17661
-3.18252
-3.19018
-3.19989
-3.28719
-3.28855
-3.29269
-3.2962
-3.29832
-3.29978
-3.30094
-3.302
-3.30301
-3.30397
-3.30492
-3.30591
-3.30703
-3.30835
-3.30995
-3.31196
-3.31451
-3.3178
-3.32206
-3.32754
-3.33461
-3.3436
-3.35498
-3.42721
-3.42887
-3.43442
-3.4386
-3.44114
-3.44313
-3.44483
-3.4464
-3.44789
-3.44931
-3.45072
-3.4522
-3.45382
-3.45568
-3.45786
-3.46051
-3.46375
-3.46782
-3.47292
-3.47933
-3.48747
-3.49761
-3.51045
-3.56826
-3.57029
-3.57713
-3.58184
-3.58478
-3.58729
-3.58951
-3.59157
-3.59352
-3.59541
-3.5973
-3.59927
-3.60142
-3.60383
-3.60661
-3.60991
-3.61386
-3.61869
-3.6246
-3.6319
-3.641
-3.65215
-3.66622
-3.71069
-3.71319
-3.72099
-3.72599
-3.72928
-3.73225
-3.73495
-3.73745
-3.73985
-3.7422
-3.74456
-3.74704
-3.74972
-3.7527
-3.7561
-3.76006
-3.76472
-3.77031
-3.77704
-3.78517
-3.79518
-3.80721
-3.82232
-3.85473
-3.85776
-3.86603
-3.8711
-3.87465
-3.87801
-3.8811
-3.884
-3.88681
-3.8896
-3.89243
-3.89541
-3.89863
-3.9022
-3.90622
-3.91086
-3.91625
-3.92261
-3.93015
-3.93911
-3.94999
-3.96281
-3.97889
-4.00041
-4.00399
-4.01217
-4.01715
-4.02086
-4.0245
-4.0279
-4.03115
-4.03434
-4.03754
-4.04082
-4.0443
-4.04806
-4.05221
-4.05688
-4.0622
-4.06833
-4.07548
-4.08384
-4.09363
-4.10539
-4.11895
-4.13601
-4.14761
-4.15166
-4.15928
-4.16405
-4.16784
-4.17166
-4.1753
-4.17883
-4.18235
-4.18593
-4.18965
-4.19361
-4.1979
-4.20263
-4.20794
-4.21395
-4.22084
-4.22878
-4.238
-4.24863
-4.26125
-4.27555
-4.2936
-4.29605
-4.30045
-4.30716
-4.3117
-4.31547
-4.31939
-4.32318
-4.32694
-4.33076
-4.33469
-4.33882
-4.34323
-4.34803
-4.35334
-4.35928
-4.36598
-4.37363
-4.38238
-4.39244
-4.40393
-4.41737
-4.43244
-4.4513
-4.4454
-4.45001
-4.45564
-4.45992
-4.46362
-4.46756
-4.47147
-4.47541
-4.47948
-4.48372
-4.48823
-4.49308
-4.49837
-4.50422
-4.51077
-4.51815
-4.52654
-4.53608
-4.54696
-4.5593
-4.57349
-4.58933
-4.60865
-4.5953
-4.59997
-4.60451
-4.60855
-4.61213
-4.61604
-4.62001
-4.62411
-4.62839
-4.63292
-4.63777
-4.64302
-4.64877
-4.65514
-4.66226
-4.67027
-4.67935
-4.68963
-4.70129
-4.71443
-4.7293
-4.74585
-4.76536
-4.74538
-4.74999
-4.75353
-4.75734
-4.76078
-4.76464
-4.76866
-4.77287
-4.77735
-4.78214
-4.7873
-4.79291
-4.79907
-4.8059
-4.81353
-4.82211
-4.83179
-4.84273
-4.85505
-4.86888
-4.88434
-4.90152
-4.92118
-4.89531
-4.89978
-4.90247
-4.90608
-4.90938
-4.91318
-4.91722
-4.92154
-4.92618
-4.9312
-4.93663
-4.94257
-4.94909
-4.95632
-4.96438
-4.97342
-4.98359
-4.99504
-5.00788
-5.02222
-5.03812
-5.05572
-5.07552
-5.04495
-5.04924
-5.05122
-5.05466
-5.05785
-5.0616
-5.06567
-5.07009
-5.07489
-5.08011
-5.08579
-5.09201
-5.09884
-5.1064
-5.11481
-5.12421
-5.13474
-5.14653
-5.15968
-5.17428
-5.19034
-5.20805
-5.22778
-5.19435
-5.19851
-5.19997
-5.20326
-5.20639
-5.2101
-5.21421
-5.21874
-5.22369
-5.22911
-5.23503
-5.24151
-5.24863
-5.25647
-5.26515
-5.27479
-5.28552
-5.29745
-5.31067
-5.32521
-5.34107
-5.35841
-5.37745
-5.34332
-5.34747
-5.34857
-5.35173
-5.35485
-5.35855
-5.36273
-5.36737
-5.37249
-5.3781
-5.38425
-5.39098
-5.39834
-5.4064
-5.41526
-5.42502
-5.43578
-5.44763
-5.46062
-5.47475
-5.48997
-5.50636
-5.52405
-5.49065
-5.49482
-5.49575
-5.49876
-5.50191
-5.50564
-5.5099
-5.51466
-5.51993
-5.52573
-5.53207
-5.53898
-5.54651
-5.55469
-5.56361
-5.57332
-5.58392
-5.59544
-5.6079
-5.62125
-5.63542
-5.65037
-5.66616
-5.63514
-5.63915
-5.64013
-5.64302
-5.64623
-5.65002
-5.65435
-5.65922
-5.66463
-5.67057
-5.67705
-5.68409
-5.69171
-5.69993
-5.70879
-5.71832
-5.72855
-5.73951
-5.75117
-5.76347
-5.7763
-5.78958
-5.80336
-5.77975
-5.78352
-5.78491
-5.78776
-5.7911
-5.795
-5.79947
-5.8045
-5.81008
-5.81622
-5.82291
-5.83016
-5.83794
-5.84627
-5.85514
-5.86452
-5.87442
-5.88479
-5.89559
-5.90674
-5.91815
-5.92972
-5.94145
-5.9332
-5.93821
-5.93996
-5.94296
-5.94651
-5.95068
-5.95546
-5.96085
-5.96685
-5.97344
-5.98062
-5.98837
-5.99666
-6.00545
-6.01469
-6.0243
-6.03421
-6.04433
-6.05453
-6.0647
-6.07468
-6.08431
-6.09341
109.446
105.545
95.5695
66.5647
24.4785
26.2308
23.6928
15.7225
-0.529483
-0.599319
-0.677183
-0.743686
-0.622378
-0.658131
-0.699486
-0.732814
-0.739681
-0.752747
-0.769948
-0.778837
-0.856503
-0.858791
-0.861521
-0.856973
-0.972446
-0.967741
-0.963045
-0.953087
-1.09186
-1.0842
-1.07584
-1.06317
-1.21407
-1.20508
-1.19533
-1.1824
-1.3394
-1.33032
-1.32059
-1.30853
-1.46781
-1.45938
-1.45045
-1.43986
-1.59911
-1.59175
-1.58406
-1.57519
-1.73319
-1.72718
-1.72096
-1.71388
-1.86995
-1.86543
-1.8608
-1.85552
-2.00937
-2.00642
-2.00345
-1.99994
-2.15141
-2.15011
-2.14884
-2.14709
-2.29609
-2.29653
-2.29704
-2.29708
-2.44339
-2.44575
-2.44825
-2.45023
-2.59327
-2.59789
-2.60277
-2.60716
-2.74558
-2.75291
-2.76078
-2.76874
-2.89996
-2.91043
-2.92202
-2.93539
-3.05594
-3.06969
-3.08577
-3.10594
-3.21289
-3.22982
-3.25082
-3.27725
-3.37013
-3.38998
-3.41539
-3.447
-3.52728
-3.54966
-3.57816
-3.61455
-3.68438
-3.70883
-3.73958
-3.77927
-3.84155
-3.86762
-3.90064
-3.94219
-3.99896
-4.02645
-4.06207
-4.10531
-4.15684
-4.18619
-4.22528
-4.27285
-4.31521
-4.34726
-4.39095
-4.44711
-4.47374
-4.50873
-4.55683
-4.62252
-4.63177
-4.66834
-4.71824
-4.78938
-4.78887
-4.82435
-4.87028
-4.94321
-4.94505
-4.97931
-5.02217
-5.09043
-5.09958
-5.13212
-5.17304
-5.24185
-5.25181
-5.28272
-5.3216
-5.38643
-5.40042
-5.4298
-5.46482
-5.51884
-5.54524
-5.57196
-5.60161
-5.64256
-5.6847
-5.7068
-5.73297
-5.76198
-5.81916
-5.83753
-5.85915
-5.88143
-5.95438
-5.96883
-5.98505
-6.00115
-6.10234
-6.11057
-6.11843
-6.12323
10.9061
-1.91275
-0.863343
0.576214
0.995539
1.41458
1.73566
1.79668
0.889869
0.0174389
-1.78173
-1.36282
-1.9609
-2.85544
-2.06706
-1.59195
-1.23657
-0.686865
-0.770996
-1.22494
-0.802522
-0.282086
0.274474
0.708736
1.06153
1.33326
1.30289
0.904889
1.00069
-0.863715
-0.657883
-2.2046
-2.69994
-2.14752
-1.74947
-1.46452
-1.02713
-1.13046
-0.740192
-0.608811
-0.326586
0.0835424
0.457755
0.752137
0.977282
1.02546
0.998873
0.822591
-1.36879
-1.47362
-2.43651
-2.67617
-2.10759
-1.82895
-1.61684
-1.29486
-1.37694
-0.744612
-0.639825
-0.393564
-0.0776232
0.216518
0.468022
0.641954
0.738492
0.931035
0.845896
-0.723886
-1.72853
-2.5063
-2.50807
-2.08878
-1.89524
-1.73904
-1.5141
-1.57095
-0.764334
-0.668742
-0.485097
-0.248166
-0.0143563
0.205579
0.32868
0.533466
0.713841
-0.680869
-1.28192
-1.54837
-1.86926
-2.10545
-2.08738
-1.98014
-1.87097
-1.71387
-1.75171
-0.833856
-0.753086
-0.608414
-0.423491
-0.236518
-0.0509998
0.0457851
0.528222
0.161748
-1.01493
-1.52696
-1.59248
-0.794506
-1.7391
-2.06889
-2.06529
-2.00942
-1.90466
-1.92935
-0.926935
-0.856968
-0.742287
-0.600875
-0.456101
-0.323057
-0.242305
0.237605
-0.354106
-0.996611
-1.60953
-2.83084
-0.767359
-1.83736
-2.10922
-2.1679
-2.15163
-2.08418
-2.10082
-1.03685
-0.977507
-0.887298
-0.780202
-0.67177
-0.596166
-0.550193
-0.62825
-0.835081
-1.37875
-2.50734
-4.4695
-2.94952
-2.49191
-2.31008
-2.31755
-2.30217
-2.25575
-2.26766
-1.15827
-1.10889
-1.03822
-0.957574
-0.879808
-0.844464
-0.836175
-1.18233
-1.02526
-1.28152
-2.46889
-2.52119
-3.75354
-2.9185
-2.55978
-2.49725
-2.45952
-2.42315
-2.43173
-1.28742
-1.24703
-1.19209
-1.13139
-1.07689
-1.06136
-1.07607
-1.3005
-1.51779
-0.863618
-0.132822
-2.17078
-3.13229
-2.87749
-2.70237
-2.65681
-2.61309
-2.58625
-2.59339
-1.42207
-1.38956
-1.34704
-1.30104
-1.26268
-1.25242
-1.26908
-1.42357
-1.63514
-1.68169
-1.48657
-2.17996
-2.71644
-2.71882
-2.77179
-2.78103
-2.75631
-2.74383
-2.75256
-1.56064
-1.53475
-1.50185
-1.46661
-1.43828
-1.42617
-1.43272
-1.54852
-1.71715
-1.84075
-1.97949
-2.44545
-2.82432
-2.72275
-2.85847
-2.89296
-2.89414
-2.89701
-2.90983
-1.70233
-1.68181
-1.65625
-1.6291
-1.60698
-1.58719
-1.5728
-1.64093
-1.63936
-1.58511
-2.20993
-2.55055
-2.94656
-2.83675
-2.97149
-3.0132
-3.03521
-3.04924
-3.06687
-1.84672
-1.83047
-1.81061
-1.79016
-1.77324
-1.74171
-1.71566
-1.6943
-1.14838
-1.8759
-2.69852
-2.22876
-2.77481
-2.89437
-3.08607
-3.14558
-3.18427
-3.20409
-3.22567
-1.99369
-1.98078
-1.96574
-1.95267
-1.94195
-1.894
-1.87922
-1.72437
-1.25376
-2.00734
-3.83209
-2.33881
-2.61242
-2.94538
-3.2059
-3.29072
-3.34297
-3.36431
-3.38775
-2.14327
-2.13282
-2.12246
-2.12037
-2.11953
-2.06157
-2.07116
-1.62101
-2.02382
-2.53039
-4.98387
-3.55659
-2.8654
-3.13374
-3.3671
-3.45647
-3.51315
-3.53236
-3.55376
-2.29565
-2.28657
-2.28148
-2.29618
-2.31221
-2.2779
-2.31948
-1.77619
-3.01309
-3.3285
-5.08972
-4.27054
-3.32061
-3.44757
-3.57825
-3.65168
-3.69602
-3.70974
-3.72408
-2.45124
-2.44218
-2.44336
-2.48012
-2.5234
-2.55955
-2.66551
-2.71076
-3.64963
-4.30675
-5.65618
-4.39863
-3.71369
-3.78358
-3.82404
-3.86564
-3.88953
-3.89427
-3.8997
-2.61117
-2.60059
-2.61047
-2.67558
-2.76165
-2.87028
-3.04638
-3.75634
-3.23528
-4.2116
-5.18479
-4.33786
-3.95342
-4.08106
-4.07676
-4.08896
-4.0903
-4.08385
-4.07886
-2.77701
-2.76413
-2.79382
-2.91294
-3.05915
-3.20051
-3.40296
-3.99645
-4.41918
-3.55939
-2.93195
-4.34689
-4.22034
-4.34615
-4.32214
-4.3136
-4.2939
-4.27696
-4.2582
-2.94925
-2.93662
-3.01811
-3.22038
-3.43814
-3.54697
-3.62046
-3.96178
-4.43121
-4.64901
-4.47265
-4.39627
-4.56742
-4.63389
-4.56289
-4.53645
-4.4965
-4.47117
-4.4351
-3.12804
-3.13559
-3.28718
-3.56494
-3.83177
-3.89869
-3.77909
-3.82867
-4.29979
-4.68537
-4.58639
-4.45302
-4.85093
-4.93984
-4.80865
-4.75877
-4.69595
-4.66252
-4.60847
-3.31061
-3.36477
-3.55939
-3.87567
-4.14052
-4.14497
-3.84839
-3.68852
-4.22876
-4.81243
-4.86855
-4.85359
-5.27111
-5.24579
-5.05964
-4.98004
-4.89094
-4.84721
-4.77658
-3.49066
-3.58908
-3.79469
-4.1012
-4.32114
-4.27588
-3.88221
-3.65526
-4.29667
-5.05393
-5.30303
-5.45629
-5.80705
-5.54487
-5.31684
-5.1916
-5.07747
-5.02298
-4.93724
-3.66356
-3.78507
-3.98341
-4.23792
-4.39303
-4.36995
-3.94922
-3.75571
-4.56478
-5.48351
-5.99719
-6.21403
-6.40352
-5.83259
-5.56944
-5.39106
-5.25256
-5.1867
-5.08796
-3.83107
-3.95074
-4.12314
-4.31529
-4.41182
-4.47609
-4.1183
-4.20481
-5.1514
-6.25626
-7.10142
-6.91446
-6.79591
-6.10512
-5.79971
-5.57081
-5.4127
-5.33528
-5.22649
-3.99737
-4.09991
-4.21726
-4.35091
-4.40593
-4.60211
-4.39536
-6.54478
-7.58883
-6.97562
-7.55282
-7.29736
-6.99499
-6.30495
-5.98519
-5.72451
-5.55424
-5.46613
-5.35109
-4.16576
-4.24313
-4.29743
-4.38223
-4.44858
-4.67087
-5.27675
-8.87812
-8.38146
-7.02895
-7.03267
-7.3413
-7.05871
-6.43788
-6.12145
-5.85029
-5.67459
-5.57773
-5.46064
-4.34153
-4.3907
-4.37851
-4.43033
-4.49749
-4.65887
-5.14294
-9.25316
-8.18185
-6.60092
-6.25866
-7.12345
-7.02827
-6.52219
-6.21744
-5.95065
-5.77331
-5.66987
-5.55471
-4.5274
-4.56213
-4.54141
-4.49692
-4.51533
-4.66109
-5.36521
-6.13668
-6.8217
-6.16304
-5.63522
-7.09521
-6.99386
-6.58054
-6.28519
-6.02917
-5.85146
-5.74341
-5.6335
-4.71194
-4.73466
-4.74441
-4.57498
-4.53512
-4.62434
-4.75358
-7.14577
-7.57307
-7.48569
-6.38639
-7.34039
-7.03843
-6.64151
-6.3374
-6.08909
-5.91073
-5.79973
-5.69763
-4.88167
-4.89379
-4.97257
-4.81107
-4.72916
-4.87487
-6.07487
-8.22612
-8.41705
-9.70823
-8.57109
-7.77095
-7.17886
-6.71147
-6.3797
-6.13203
-5.95277
-5.84031
-5.74794
-5.0267
-5.05686
-5.21279
-5.29319
-5.99775
-7.36538
-7.85658
-8.74437
-8.21661
-10.335
-9.79571
-8.14736
-7.34456
-6.76707
-6.40692
-6.15691
-5.97849
-5.86645
-5.78537
-5.17656
-5.22483
-5.35966
-5.55025
-6.78115
-7.90178
-7.30059
-7.80441
-7.92588
-9.97569
-9.73908
-8.20674
-7.39059
-6.77106
-6.4079
-6.1609
-5.98812
-5.87927
-5.81093
-5.33051
-5.39155
-5.51329
-5.72844
-5.5789
-3.71937
-3.94011
-6.85188
-8.57621
-9.30169
-9.0849
-7.98663
-7.26992
-6.7084
-6.37457
-6.14235
-5.98204
-5.87996
-5.82572
-5.47199
-5.54011
-5.67195
-5.89081
-6.15316
-6.69864
-7.45952
-7.98374
-8.44524
-8.86643
-8.48813
-7.64486
-7.04902
-6.59527
-6.30878
-6.10323
-5.96175
-5.87016
-5.83101
-5.59646
-5.66019
-5.77691
-5.97593
-6.29319
-6.89329
-7.54805
-8.00165
-8.3096
-8.43638
-7.96998
-7.28562
-6.80494
-6.45663
-6.22047
-6.04896
-5.93008
-5.852
-5.82816
-5.70764
-5.76268
-5.85315
-6.00641
-6.28521
-6.84206
-7.44076
-7.83303
-8.01819
-7.92485
-7.46569
-6.93624
-6.56944
-6.3093
-6.12152
-5.98626
-5.89101
-5.82823
-5.81874
-5.80858
-5.85956
-5.91534
-6.01235
-6.20247
-6.62817
-7.09456
-7.3779
-7.48161
-7.33455
-6.971
-6.6027
-6.34576
-6.16064
-6.01996
-5.92002
-5.84789
-5.80088
-5.80378
-5.91323
-5.94909
-5.97191
-6.00045
-6.06831
-6.31411
-6.63618
-6.84141
-6.88275
-6.76087
-6.52195
-6.29956
-6.1393
-6.01951
-5.92405
-5.85685
-5.80679
-5.77481
-5.78592
-6.0222
-6.0447
-6.03908
-6.005
-5.9297
-5.93998
-6.13183
-6.30951
-6.32782
-6.2526
-6.13026
-6.02507
-5.94466
-5.88205
-5.82951
-5.79263
-5.76367
-5.74525
-5.76167
-6.13823
-6.16208
-6.12919
-6.05818
-5.88324
-5.67832
-5.70574
-5.84533
-5.89251
-5.89182
-5.86331
-5.83328
-5.80974
-5.79141
-5.77396
-5.76157
-5.75216
-5.74653
-5.75163
)
;

boundaryField
{
    leftWall
    {
        type            calculated;
        value           nonuniform List<scalar> 
50
(
1407.19
1227
1045.18
861.165
673.533
479.504
282.833
93.6244
6.86812
0.249821
-0.27054
-0.578269
-0.732254
-0.860311
-0.990836
-1.12116
-1.25119
-1.38179
-1.51325
-1.64553
-1.77838
-1.91175
-2.04582
-2.18086
-2.31701
-2.45421
-2.59227
-2.7309
-2.86978
-3.00876
-3.14783
-3.28719
-3.42721
-3.56826
-3.71069
-3.85473
-4.00041
-4.14761
-4.29605
-4.4454
-4.5953
-4.74538
-4.89531
-5.04495
-5.19435
-5.34332
-5.49065
-5.63514
-5.77975
-5.9332
)
;
    }
    rightWall
    {
        type            calculated;
        value           nonuniform List<scalar> 
50
(
68.9533
66.4341
43.6898
15.9906
2.76191
0.181814
0.176489
-0.193964
-0.770996
-1.13046
-1.37694
-1.57095
-1.75171
-1.92935
-2.10082
-2.26766
-2.43173
-2.59339
-2.75256
-2.90983
-3.06687
-3.22567
-3.38775
-3.55376
-3.72408
-3.8997
-4.07886
-4.2582
-4.4351
-4.60847
-4.77658
-4.93724
-5.08796
-5.22649
-5.35109
-5.46064
-5.55471
-5.6335
-5.69763
-5.74794
-5.78537
-5.81093
-5.82572
-5.83101
-5.82816
-5.81874
-5.80378
-5.78592
-5.76167
-5.75163
)
;
    }
    lowerWall
    {
        type            calculated;
        value           nonuniform List<scalar> 
62
(
1496.71
1496.5
1496.56
1496.99
1497.85
1499.08
1500.59
1502.27
1504.06
1505.94
1507.85
1509.76
1511.62
1513.39
1515.02
1516.47
1517.7
1518.66
1519.33
1519.59
1519.47
1517.11
1503.96
1425.07
1249.96
1080.67
908.254
730.114
552.415
375.553
203.006
158.304
154.068
143.999
114.758
135.437
47.6002
14.2556
16.5167
19.8185
20.5346
20.3642
-34.0112
137.231
121.864
87.8433
130.304
400.631
743.149
872.121
849.161
773.454
604.457
341.684
136.92
97.8281
84.8426
73.9688
67.4015
64.9754
66.3523
69.1618
)
;
    }
    atmosphere
    {
        type            calculated;
        value           nonuniform List<scalar> 
46
(
-6.0174
-6.02579
-6.02682
-6.02996
-6.03372
-6.03813
-6.04321
-6.04894
-6.05533
-6.06236
-6.07002
-6.07828
-6.08711
-6.09642
-6.10616
-6.11621
-6.12645
-6.13675
-6.14693
-6.1568
-6.16613
-6.17462
-6.1819
-6.18786
-6.19105
-6.19104
-6.18411
-6.19946
-6.23942
-6.18753
-6.11112
-5.96234
-5.80567
-5.73263
-5.73442
-5.72975
-5.72927
-5.72905
-5.72904
-5.72904
-5.72904
-5.72904
-5.72904
-5.72904
-5.72904
-5.72904
)
;
    }
    defaultFaces
    {
        type            empty;
    }
}


// ************************************************************************* //
