/*--------------------------------*- C++ -*----------------------------------*\
| =========                 |                                                 |
| \\      /  F ield         | OpenFOAM: The Open Source CFD Toolbox           |
|  \\    /   O peration     | Version:  2206                                  |
|   \\  /    A nd           | Website:  www.openfoam.com                      |
|    \\/     M anipulation  |                                                 |
\*---------------------------------------------------------------------------*/
FoamFile
{
    version     2.0;
    format      ascii;
    arch        "LSB;label=32;scalar=64";
    class       surfaceScalarField;
    location    "0.55";
    object      phi;
}
// * * * * * * * * * * * * * * * * * * * * * * * * * * * * * * * * * * * * * //

dimensions      [0 3 -1 0 0 0 0];

oriented        oriented;

internalField   nonuniform List<scalar> 
4432
(
-4.64572e-06
4.64572e-06
-5.01433e-06
3.6861e-07
-4.17073e-06
-8.43597e-07
-4.09622e-06
-7.45142e-08
-5.03038e-06
9.34166e-07
-6.59863e-06
1.56825e-06
-8.30693e-06
1.7083e-06
-9.83315e-06
1.52623e-06
-1.10494e-05
1.21621e-06
-1.19506e-05
9.01223e-07
-1.25769e-05
6.26313e-07
-1.2975e-05
3.98159e-07
-1.31789e-05
2.03891e-07
-1.3193e-05
1.41091e-08
-1.30054e-05
-1.87588e-07
-1.25772e-05
-4.28271e-07
-1.18119e-05
-7.65278e-07
-1.04765e-05
-1.33539e-06
-8.09285e-06
-2.38364e-06
-4.15242e-06
-3.94043e-06
2.98683e-06
-7.13925e-06
1.06818e-05
-7.695e-06
1.06818e-05
-4.95668e-06
9.60241e-06
-5.7047e-06
1.11664e-06
-5.24598e-06
-1.30231e-06
-5.41728e-06
9.67913e-08
-6.43902e-06
1.95591e-06
-7.9754e-06
3.10463e-06
-9.57149e-06
3.30438e-06
-1.09289e-05
2.88361e-06
-1.19278e-05
2.21517e-06
-1.25452e-05
1.51862e-06
-1.27956e-05
8.76669e-07
-1.26905e-05
2.93041e-07
-1.22382e-05
-2.48406e-07
-1.14482e-05
-7.75914e-07
-1.03387e-05
-1.29706e-06
-8.92107e-06
-1.84588e-06
-7.21103e-06
-2.47531e-06
-5.24755e-06
-3.29888e-06
-3.14023e-06
-4.49096e-06
-8.44694e-07
-6.23596e-06
7.0719e-07
-8.69113e-06
1.44735e-06
-8.43515e-06
1.21292e-05
-5.32594e-06
1.49284e-05
-7.04421e-06
2.83491e-06
-7.37771e-06
-9.68819e-07
-7.87429e-06
5.93385e-07
-8.99097e-06
3.07259e-06
-1.04486e-05
4.56225e-06
-1.19036e-05
4.75941e-06
-1.31308e-05
4.11086e-06
-1.40329e-05
3.11726e-06
-1.45951e-05
2.08082e-06
-1.483e-05
1.11154e-06
-1.47464e-05
2.09495e-07
-1.43547e-05
-6.40102e-07
-1.36534e-05
-1.47723e-06
-1.26577e-05
-2.29276e-06
-1.14134e-05
-3.09024e-06
-9.98205e-06
-3.90662e-06
-8.51071e-06
-4.77022e-06
-7.29444e-06
-5.70723e-06
-6.73902e-06
-6.79138e-06
-7.28957e-06
-8.14058e-06
-8.44708e-06
-7.27763e-06
3.68209e-06
-6.07725e-06
2.10056e-05
-9.26213e-06
6.01979e-06
-1.06697e-05
4.38759e-07
-1.14835e-05
1.4072e-06
-1.26107e-05
4.19979e-06
-1.39735e-05
5.92506e-06
-1.53014e-05
6.08731e-06
-1.63997e-05
5.20916e-06
-1.71808e-05
3.89828e-06
-1.76232e-05
2.52329e-06
-1.77316e-05
1.21988e-06
-1.7529e-05
6.98425e-09
-1.70221e-05
-1.14703e-06
-1.62634e-05
-2.23592e-06
-1.52914e-05
-3.26474e-06
-1.41441e-05
-4.23758e-06
-1.28898e-05
-5.16088e-06
-1.16234e-05
-6.03661e-06
-1.052e-05
-6.81063e-06
-9.94076e-06
-7.37067e-06
-1.01911e-05
-7.89021e-06
-8.84848e-06
-8.62028e-06
-5.16639e-06
-7.43449e-06
2.84401e-05
-1.29852e-05
1.15706e-05
-1.52167e-05
2.6702e-06
-1.59649e-05
2.15544e-06
-1.71135e-05
5.34838e-06
-1.84772e-05
7.28876e-06
-1.97168e-05
7.32689e-06
-2.06802e-05
6.17261e-06
-2.12932e-05
4.51123e-06
-2.15659e-05
2.79601e-06
-2.15415e-05
1.19546e-06
-2.12007e-05
-3.33832e-07
-2.05496e-05
-1.79807e-06
-1.95235e-05
-3.26206e-06
-1.81564e-05
-4.63185e-06
-1.65299e-05
-5.86405e-06
-1.47536e-05
-6.93714e-06
-1.29151e-05
-7.87513e-06
-1.10722e-05
-8.6536e-06
-9.29515e-06
-9.14767e-06
-7.80723e-06
-9.37814e-06
-5.26732e-06
-1.11602e-05
-1.04337e-05
-5.19e-06
3.36301e-05
-1.34747e-05
1.98553e-05
-1.80532e-05
7.24865e-06
-1.98237e-05
3.92597e-06
-2.13501e-05
6.87479e-06
-2.33386e-05
9.27722e-06
-2.52454e-05
9.23374e-06
-2.68108e-05
7.73801e-06
-2.78067e-05
5.50712e-06
-2.81388e-05
3.12808e-06
-2.78489e-05
9.05598e-07
-2.70226e-05
-1.16018e-06
-2.57354e-05
-3.08517e-06
-2.40159e-05
-4.98158e-06
-2.19546e-05
-6.69315e-06
-1.96638e-05
-8.15491e-06
-1.70953e-05
-9.50562e-06
-1.43149e-05
-1.06555e-05
-1.14048e-05
-1.15637e-05
-8.37557e-06
-1.21769e-05
-5.49399e-06
-1.22597e-05
-2.73339e-06
-1.39208e-05
-1.31671e-05
1.52494e-06
3.21052e-05
-5.15104e-06
2.65312e-05
-1.33986e-05
1.54963e-05
-2.00496e-05
1.05769e-05
-2.44764e-05
1.13016e-05
-2.74994e-05
1.23002e-05
-2.94835e-05
1.12178e-05
-3.08022e-05
9.05665e-06
-3.13793e-05
6.08429e-06
-3.15544e-05
3.3031e-06
-3.19639e-05
1.31516e-06
-3.25393e-05
-5.848e-07
-3.22077e-05
-3.41675e-06
-3.03643e-05
-6.825e-06
-2.76145e-05
-9.44293e-06
-2.44994e-05
-1.127e-05
-2.08135e-05
-1.31915e-05
-1.66982e-05
-1.47708e-05
-1.24916e-05
-1.57702e-05
-8.1825e-06
-1.64861e-05
-3.83722e-06
-1.6605e-05
-2.5159e-07
-1.75064e-05
-1.34187e-05
9.89142e-06
2.22137e-05
1.17714e-05
2.46513e-05
1.11952e-06
2.61481e-05
-1.33324e-05
2.50289e-05
-2.2562e-05
2.05312e-05
-2.74434e-05
1.71816e-05
-3.08082e-05
1.45827e-05
-3.3901e-05
1.21495e-05
-3.65663e-05
8.74954e-06
-3.84006e-05
5.13747e-06
-3.95994e-05
2.51391e-06
-4.02182e-05
3.39781e-08
-3.9313e-05
-4.32196e-06
-3.69883e-05
-9.14961e-06
-3.42453e-05
-1.2186e-05
-3.12547e-05
-1.42605e-05
-2.75307e-05
-1.69156e-05
-2.32464e-05
-1.90551e-05
-1.89658e-05
-2.00508e-05
-1.49026e-05
-2.05493e-05
-1.02152e-05
-2.12924e-05
-5.81409e-06
-2.19075e-05
-1.92328e-05
-0.00037118
0.00037118
-0.000471815
0.000100634
-0.000455533
-1.6282e-05
-0.000370981
-8.45512e-05
-0.000233979
-0.000137002
-5.73801e-05
-0.000176599
9.02849e-05
-0.000147665
0.000221814
-0.000131529
0.000368981
-0.000147167
0.000516102
-0.000147121
0.000640567
-0.000124465
0.000753443
-0.000112876
0.000860036
-0.000106594
0.000900241
-4.02046e-05
0.000858821
4.14204e-05
0.000699648
0.000159172
0.000472087
0.000227561
0.000221281
0.000250806
0.000221281
-0.000298444
0.000669625
-0.00039265
0.00019484
-0.000199178
-0.000209754
-0.000116012
-0.000167717
-9.42003e-07
-0.000252072
9.32334e-05
-0.000270774
0.000182102
-0.000236534
0.000258673
-0.0002081
0.000339827
-0.00022832
0.000408163
-0.000215457
0.000471085
-0.000187387
0.000510262
-0.000152053
0.000570614
-0.000166945
0.000778074
-0.000247664
0.00101868
-0.000199185
0.0010349
0.000142947
0.000881419
0.000381045
0.000582714
0.000549511
0.000803996
7.54071e-05
0.000594217
4.1609e-05
0.000228638
7.51747e-05
-0.00024332
0.000128161
-0.000220703
0.000153481
-0.000277392
0.000194586
-0.00031188
0.000228617
-0.000270564
0.000239932
-0.000219415
0.00022135
-0.000209739
0.000266693
-0.0002608
0.000427892
-0.000348587
0.000606365
-0.000330526
0.000733312
-0.000293892
0.000793642
-0.000307994
0.00084678
-0.000252322
0.000886794
0.000102933
0.000764098
0.000503741
0.000507451
0.000806158
0.00131145
0.000189579
0.000404639
0.00032729
9.09269e-05
0.000229051
-0.000145081
0.000228533
-0.000220185
0.000232993
-0.000281852
0.000243369
-0.000322256
0.000220852
-0.000248048
0.000148308
-0.000146871
0.000112216
-0.000173647
0.000210388
-0.000358972
0.000314391
-0.00045259
0.000425124
-0.000441259
0.000506795
-0.000375564
0.000534773
-0.000335972
0.000503919
-0.000221468
0.000475242
0.000131611
0.000391524
0.000587459
0.000195649
0.00100203
0.0015071
0.000143751
0.000260888
0.00020811
2.65682e-05
0.000215573
-0.000152545
0.000226947
-0.000231559
0.000246559
-0.000301464
0.000232884
-0.000308581
0.000169327
-0.000184491
8.64376e-05
-6.39819e-05
0.000138969
-0.000226179
0.000204985
-0.000424988
0.000214692
-0.000462297
0.000239408
-0.000465975
0.000270559
-0.000406715
0.00024088
-0.000306294
0.000150624
-0.000131211
7.92219e-05
0.000203012
1.81428e-05
0.000648539
-8.63004e-05
0.00110648
0.0014208
8.618e-05
0.000174708
0.000189113
-7.63646e-05
0.000207967
-0.000171399
0.000234283
-0.000257875
0.000238497
-0.000305678
0.000188813
-0.000258896
9.82867e-05
-9.39648e-05
8.46718e-05
-5.03674e-05
0.000191715
-0.000333222
0.000196397
-0.000429669
0.000179449
-0.000445349
0.000156776
-0.000443301
0.000158701
-0.00040864
6.39849e-05
-0.000211577
-7.82527e-05
1.10267e-05
-0.000189711
0.000314471
-0.000229705
0.000688532
-0.000220881
0.00109765
0.00119991
0.000144615
3.00926e-05
0.000177626
-0.000109375
0.000211264
-0.000205037
0.000232505
-0.000279117
0.000208248
-0.00028142
0.000141952
-0.000192601
0.000102905
-5.49176e-05
0.00016652
-0.000113983
0.000209086
-0.000375788
0.000199021
-0.000419605
0.000182327
-0.000428654
0.000165813
-0.000426787
0.000135688
-0.000378516
5.91542e-05
-0.000135043
-0.000133099
0.00020328
-0.000262208
0.000443579
-0.000290432
0.000716756
-0.000203329
0.00101055
0.000996586
0.000118187
-8.80943e-05
0.000181137
-0.000172325
0.00023733
-0.00026123
0.000217033
-0.00025882
0.000164952
-0.000229339
0.000124856
-0.000152506
0.000139797
-6.9859e-05
0.00021665
-0.000190836
0.000210271
-0.00036941
0.000196765
-0.000406098
0.000186554
-0.000418443
0.000173516
-0.00041375
0.000144559
-0.000349559
7.80995e-05
-6.85829e-05
-9.2389e-05
0.000373768
-0.000211996
0.000563186
-0.000229169
0.000733929
-0.000129738
0.000911118
0.000866847
1.27254e-07
2.20865e-05
-1.11274e-06
2.58913e-05
-6.59107e-06
3.16264e-05
-1.42932e-05
3.2731e-05
-2.42788e-05
3.05168e-05
-3.34521e-05
2.63548e-05
-3.87944e-05
1.99251e-05
-3.96543e-05
1.30093e-05
-3.83117e-05
7.40695e-06
-3.53581e-05
2.18387e-06
-3.25502e-05
-2.94032e-07
-3.10084e-05
-1.50777e-06
-3.02647e-05
-5.06565e-06
-2.91578e-05
-1.02566e-05
-2.64115e-05
-1.49322e-05
-2.28054e-05
-1.78667e-05
-1.94912e-05
-2.02298e-05
-1.58746e-05
-2.26716e-05
-1.16483e-05
-2.42772e-05
-7.88353e-06
-2.4314e-05
-5.11592e-06
-2.406e-05
-3.38712e-06
-2.36363e-05
-2.25518e-05
-6.81202e-08
-4.81554e-05
7.02419e-05
-8.29236e-05
6.06596e-05
-9.77106e-05
4.64133e-05
-9.75068e-05
3.25272e-05
-9.68588e-05
2.98688e-05
-0.00010186
3.13558e-05
-0.000102315
2.03806e-05
-9.18512e-05
2.54529e-06
-8.08741e-05
-3.57011e-06
-7.15985e-05
-7.09173e-06
-6.01456e-05
-1.17469e-05
-4.48472e-05
-1.68062e-05
-2.88632e-05
-2.10497e-05
-1.62448e-05
-2.2875e-05
-5.6196e-06
-2.55574e-05
3.10018e-06
-2.65865e-05
9.87968e-06
-2.70092e-05
1.47777e-05
-2.75697e-05
1.99742e-05
-2.94737e-05
2.52723e-05
-2.96121e-05
2.88956e-05
-2.76833e-05
2.94406e-05
-2.41813e-05
-1.98594e-05
2.67481e-05
-4.68643e-06
7.49281e-05
-7.03987e-06
6.30132e-05
-1.34843e-05
5.28578e-05
-2.09639e-05
4.0007e-05
-2.19634e-05
3.08683e-05
-1.49135e-05
2.43059e-05
-6.80763e-06
1.22748e-05
5.29685e-06
-9.55919e-06
2.01588e-05
-1.8432e-05
3.50573e-05
-2.19902e-05
4.81357e-05
-2.48253e-05
5.85158e-05
-2.71864e-05
6.63056e-05
-2.88395e-05
7.30398e-05
-2.96093e-05
7.7774e-05
-3.02916e-05
8.2017e-05
-3.08293e-05
8.50061e-05
-2.99982e-05
8.70753e-05
-2.96387e-05
8.95497e-05
-3.19479e-05
9.48639e-05
-3.49262e-05
0.000103153
-3.59718e-05
0.000113613
-3.4642e-05
-3.18851e-05
0.000125639
9.10779e-06
6.58202e-05
2.36014e-05
4.85197e-05
3.86018e-05
3.78576e-05
4.98181e-05
2.87909e-05
6.02636e-05
2.04231e-05
7.2735e-05
1.18347e-05
8.35164e-05
1.49353e-06
8.62303e-05
-1.2273e-05
8.91103e-05
-2.1312e-05
9.24356e-05
-2.53156e-05
9.45721e-05
-2.69619e-05
9.55168e-05
-2.81312e-05
9.60081e-05
-2.93309e-05
9.69333e-05
-3.05345e-05
9.8567e-05
-3.19252e-05
0.000101168
-3.343e-05
0.000105345
-3.41754e-05
0.000109957
-3.42506e-05
0.000113166
-3.51562e-05
0.000115292
-3.7053e-05
0.000117964
-3.86437e-05
0.00012272
-3.93982e-05
-3.9579e-05
0.000130414
6.80363e-06
5.90167e-05
1.97434e-05
3.558e-05
3.62979e-05
2.13032e-05
5.29769e-05
1.21121e-05
6.83525e-05
5.04759e-06
8.19486e-05
-1.76134e-06
9.12446e-05
-7.80247e-06
9.38354e-05
-1.48637e-05
9.31183e-05
-2.05949e-05
9.1739e-05
-2.39364e-05
9.05972e-05
-2.58201e-05
8.99929e-05
-2.75269e-05
9.01171e-05
-2.94552e-05
9.09852e-05
-3.14025e-05
9.23427e-05
-3.32826e-05
9.40277e-05
-3.51148e-05
9.65545e-05
-3.67021e-05
0.000100402
-3.80978e-05
0.000105017
-3.97715e-05
0.000109644
-4.168e-05
0.000114243
-4.32424e-05
0.00011928
-4.44345e-05
-4.57965e-05
0.000125497
3.30019e-06
5.57166e-05
1.19117e-05
2.69687e-05
2.46397e-05
8.57535e-06
3.96207e-05
-2.86872e-06
5.43027e-05
-9.63439e-06
6.63116e-05
-1.37702e-05
7.51926e-05
-1.66835e-05
7.99053e-05
-1.95764e-05
8.16453e-05
-2.23349e-05
8.22785e-05
-2.45696e-05
8.29192e-05
-2.64609e-05
8.38753e-05
-2.84832e-05
8.52158e-05
-3.07958e-05
8.70436e-05
-3.32303e-05
8.93783e-05
-3.56172e-05
9.21441e-05
-3.78806e-05
9.53546e-05
-3.99125e-05
9.8934e-05
-4.16772e-05
0.000102575
-4.34129e-05
0.000106216
-4.53206e-05
0.00011023
-4.72562e-05
0.00011492
-4.91247e-05
-5.11337e-05
0.000120257
1.79036e-06
5.39264e-05
7.76252e-06
2.09967e-05
1.84165e-05
-2.07855e-06
3.14718e-05
-1.5924e-05
4.44561e-05
-2.26186e-05
5.5534e-05
-2.48482e-05
6.39949e-05
-2.51443e-05
6.96411e-05
-2.52226e-05
7.30666e-05
-2.57605e-05
7.53186e-05
-2.68216e-05
7.72393e-05
-2.83817e-05
7.92199e-05
-3.04638e-05
8.14012e-05
-3.29772e-05
8.3853e-05
-3.56821e-05
8.65913e-05
-3.83555e-05
8.95891e-05
-4.08783e-05
9.28676e-05
-4.3191e-05
9.64933e-05
-4.53028e-05
0.000100412
-4.73318e-05
0.000104472
-4.93801e-05
0.000108634
-5.14183e-05
0.000112959
-5.34499e-05
-5.56431e-05
0.000117469
1.52642e-06
5.24e-05
5.87832e-06
1.66448e-05
1.50136e-05
-1.12139e-05
2.65897e-05
-2.75001e-05
3.81069e-05
-3.41357e-05
4.8022e-05
-3.47633e-05
5.57778e-05
-3.29e-05
6.14453e-05
-3.089e-05
6.55181e-05
-2.98333e-05
6.8686e-05
-2.99896e-05
7.15347e-05
-3.12304e-05
7.43775e-05
-3.33067e-05
7.73233e-05
-3.5923e-05
8.04102e-05
-3.87691e-05
8.36504e-05
-4.15957e-05
8.70349e-05
-4.42629e-05
9.05619e-05
-4.67179e-05
9.42303e-05
-4.89711e-05
9.79961e-05
-5.10975e-05
0.000101808
-5.31917e-05
0.000105689
-5.52998e-05
0.000109693
-5.74537e-05
-5.97383e-05
0.000113788
1.77307e-06
5.0627e-05
5.29348e-06
1.31243e-05
1.34069e-05
-1.93273e-05
2.37037e-05
-3.7797e-05
3.37766e-05
-4.42086e-05
4.23514e-05
-4.3338e-05
4.91568e-05
-3.97054e-05
5.44709e-05
-3.6204e-05
5.87749e-05
-3.41372e-05
6.25485e-05
-3.37632e-05
6.61432e-05
-3.48252e-05
6.97331e-05
-3.68966e-05
7.33592e-05
-3.95492e-05
7.70119e-05
-4.24217e-05
8.06773e-05
-4.5261e-05
8.43493e-05
-4.79348e-05
8.80368e-05
-5.04052e-05
9.17605e-05
-5.26946e-05
9.5527e-05
-5.4864e-05
9.93184e-05
-5.69829e-05
0.000103118
-5.90997e-05
0.000106916
-6.12515e-05
-6.34938e-05
0.000110672
2.03554e-06
4.85914e-05
5.4638e-06
9.69592e-06
1.28992e-05
-2.67628e-05
2.2082e-05
-4.69798e-05
3.07718e-05
-5.28983e-05
3.80121e-05
-5.05783e-05
4.38441e-05
-4.55372e-05
4.87162e-05
-4.10761e-05
5.30896e-05
-3.85106e-05
5.72844e-05
-3.7958e-05
6.14589e-05
-3.89996e-05
6.56422e-05
-4.108e-05
6.97938e-05
-4.37008e-05
7.38652e-05
-4.6493e-05
7.78331e-05
-4.92289e-05
8.17023e-05
-5.1804e-05
8.54966e-05
-5.41996e-05
8.92461e-05
-5.64441e-05
9.29703e-05
-5.85881e-05
9.66726e-05
-6.06853e-05
0.00010035
-6.27769e-05
0.000103992
-6.48938e-05
-6.70682e-05
0.000107567
2.22642e-06
4.63649e-05
5.95635e-06
5.96584e-06
1.30412e-05
-3.38477e-05
2.12683e-05
-5.52069e-05
2.86626e-05
-6.02925e-05
3.4652e-05
-5.65676e-05
3.95908e-05
-5.04759e-05
4.40535e-05
-4.55388e-05
4.84493e-05
-4.29063e-05
5.29455e-05
-4.24542e-05
5.75341e-05
-4.35882e-05
6.2123e-05
-4.56689e-05
6.66104e-05
-4.81882e-05
7.09299e-05
-5.08125e-05
7.50643e-05
-5.33632e-05
7.90344e-05
-5.57741e-05
8.28806e-05
-5.80457e-05
8.6645e-05
-6.02085e-05
9.03577e-05
-6.23007e-05
9.40307e-05
-6.43582e-05
9.76611e-05
-6.64073e-05
0.000101233
-6.84662e-05
-7.05517e-05
0.000104717
2.4078e-06
4.3957e-05
6.66731e-06
1.70624e-06
1.3595e-05
-4.07755e-05
2.09589e-05
-6.25708e-05
2.71413e-05
-6.64748e-05
3.20083e-05
-6.14345e-05
3.61997e-05
-5.46672e-05
4.03509e-05
-4.969e-05
4.47728e-05
-4.73281e-05
4.94775e-05
-4.71589e-05
5.43212e-05
-4.84318e-05
5.913e-05
-5.04776e-05
6.37741e-05
-5.28322e-05
6.81927e-05
-5.52311e-05
7.23863e-05
-5.75568e-05
7.63922e-05
-5.97801e-05
8.02602e-05
-6.19137e-05
8.4035e-05
-6.39831e-05
8.77465e-05
-6.60122e-05
9.1408e-05
-6.80197e-05
9.50191e-05
-7.00183e-05
9.85685e-05
-7.20159e-05
-7.40173e-05
0.000102034
2.62821e-06
4.13287e-05
7.50041e-06
-3.166e-06
1.43521e-05
-4.76271e-05
2.09003e-05
-6.91189e-05
2.59602e-05
-7.15347e-05
2.98646e-05
-6.53387e-05
3.34862e-05
-5.82887e-05
3.74436e-05
-5.36473e-05
4.19039e-05
-5.17883e-05
4.67295e-05
-5.19845e-05
5.16791e-05
-5.33814e-05
5.65427e-05
-5.53412e-05
6.11966e-05
-5.74862e-05
6.56029e-05
-5.96375e-05
6.97824e-05
-6.17364e-05
7.37828e-05
-6.37805e-05
7.76545e-05
-6.57855e-05
8.14379e-05
-6.77664e-05
8.51585e-05
-6.97326e-05
8.88279e-05
-7.16891e-05
9.24474e-05
-7.36379e-05
9.60104e-05
-7.55789e-05
-7.75071e-05
9.95002e-05
2.85401e-06
3.84747e-05
8.34644e-06
-8.65843e-06
1.51276e-05
-5.44083e-05
2.088e-05
-7.48713e-05
2.49211e-05
-7.55757e-05
2.80474e-05
-6.84651e-05
3.1287e-05
-6.15283e-05
3.51593e-05
-5.75195e-05
3.96574e-05
-5.62863e-05
4.45147e-05
-5.68417e-05
4.94388e-05
-5.83054e-05
5.42262e-05
-6.01286e-05
5.87845e-05
-6.20445e-05
6.31054e-05
-6.39585e-05
6.72252e-05
-6.58562e-05
7.1193e-05
-6.77483e-05
7.50526e-05
-6.9645e-05
7.88355e-05
-7.15492e-05
8.25613e-05
-7.34582e-05
8.62401e-05
-7.53678e-05
8.98761e-05
-7.72739e-05
9.34676e-05
-7.91706e-05
-8.1043e-05
9.70034e-05
3.03712e-06
3.54376e-05
9.11536e-06
-1.47366e-05
1.57776e-05
-6.10704e-05
2.0747e-05
-7.98407e-05
2.38992e-05
-7.87277e-05
2.64514e-05
-7.10173e-05
2.94851e-05
-6.45619e-05
3.33486e-05
-6.1383e-05
3.78552e-05
-6.07927e-05
4.26491e-05
-6.16356e-05
4.74348e-05
-6.30911e-05
5.20489e-05
-6.47428e-05
5.64426e-05
-6.64382e-05
6.06338e-05
-6.81496e-05
6.46653e-05
-6.98877e-05
6.85799e-05
-7.16629e-05
7.24106e-05
-7.34757e-05
7.618e-05
-7.53186e-05
7.9903e-05
-7.71811e-05
8.35897e-05
-7.90544e-05
8.72471e-05
-8.09315e-05
9.08768e-05
-8.28005e-05
-8.46368e-05
9.44706e-05
3.22371e-06
3.22139e-05
9.77718e-06
-2.129e-05
1.62288e-05
-6.7522e-05
2.0439e-05
-8.40509e-05
2.28633e-05
-8.11521e-05
2.505e-05
-7.3204e-05
2.80183e-05
-6.75301e-05
3.18984e-05
-6.5263e-05
3.63495e-05
-6.52437e-05
4.0981e-05
-6.6267e-05
4.55381e-05
-6.76481e-05
4.99164e-05
-6.91211e-05
5.41089e-05
-7.06307e-05
5.81495e-05
-7.21902e-05
6.20779e-05
-7.38161e-05
6.59259e-05
-7.5511e-05
6.97159e-05
-7.72658e-05
7.34637e-05
-7.90665e-05
7.71814e-05
-8.08989e-05
8.08796e-05
-8.27528e-05
8.4567e-05
-8.4619e-05
8.82453e-05
-8.64791e-05
-8.83005e-05
9.19088e-05
3.46224e-06
2.87517e-05
1.03572e-05
-2.8185e-05
1.64867e-05
-7.36516e-05
1.9982e-05
-8.75462e-05
2.18592e-05
-8.30293e-05
2.38677e-05
-7.52125e-05
2.6855e-05
-7.05173e-05
3.07232e-05
-6.9131e-05
3.50324e-05
-6.95528e-05
3.94149e-05
-7.06493e-05
4.36863e-05
-7.19195e-05
4.78028e-05
-7.32375e-05
5.17865e-05
-7.46144e-05
5.56745e-05
-7.60781e-05
5.94969e-05
-7.76385e-05
6.32739e-05
-7.92882e-05
6.70201e-05
-8.10121e-05
7.0747e-05
-8.27935e-05
7.44652e-05
-8.46174e-05
7.81852e-05
-8.6473e-05
8.19144e-05
-8.83483e-05
8.56536e-05
-9.02184e-05
-9.20452e-05
8.93983e-05
3.79212e-06
2.49596e-05
1.09076e-05
-3.53004e-05
1.6615e-05
-7.93591e-05
1.94563e-05
-9.03875e-05
2.09591e-05
-8.45322e-05
2.29276e-05
-7.7181e-05
2.59562e-05
-7.35458e-05
2.97481e-05
-7.29227e-05
3.38331e-05
-7.36376e-05
3.79126e-05
-7.47286e-05
4.18816e-05
-7.58884e-05
4.57429e-05
-7.70988e-05
4.9531e-05
-7.84023e-05
5.32756e-05
-7.98228e-05
5.69955e-05
-8.13586e-05
6.07023e-05
-8.29951e-05
6.44057e-05
-8.47156e-05
6.81153e-05
-8.65031e-05
7.18409e-05
-8.8343e-05
7.55908e-05
-9.0223e-05
7.93699e-05
-9.21274e-05
8.31779e-05
-9.40264e-05
-9.58756e-05
8.70081e-05
4.2422e-06
2.07174e-05
1.14861e-05
-4.25443e-05
1.66939e-05
-8.45669e-05
1.89436e-05
-9.26374e-05
2.02095e-05
-8.57981e-05
2.22132e-05
-7.91846e-05
2.52565e-05
-7.65891e-05
2.89003e-05
-7.65664e-05
3.27073e-05
-7.74445e-05
3.64706e-05
-7.84919e-05
4.0154e-05
-7.95717e-05
4.37857e-05
-8.07305e-05
4.73975e-05
-8.20142e-05
5.10081e-05
-8.34336e-05
5.46271e-05
-8.49777e-05
5.82612e-05
-8.66294e-05
6.19189e-05
-8.83733e-05
6.56088e-05
-9.01929e-05
6.934e-05
-9.20741e-05
7.31183e-05
-9.40012e-05
7.69457e-05
-9.59549e-05
8.08222e-05
-9.7903e-05
-9.97873e-05
8.47338e-05
4.81131e-06
1.59061e-05
1.21265e-05
-4.98594e-05
1.67746e-05
-8.92151e-05
1.8485e-05
-9.43478e-05
1.96064e-05
-8.69196e-05
2.16653e-05
-8.12435e-05
2.46719e-05
-7.95956e-05
2.81113e-05
-8.00057e-05
3.16218e-05
-8.0955e-05
3.50872e-05
-8.19573e-05
3.8517e-05
-8.30016e-05
4.19454e-05
-8.41589e-05
4.5394e-05
-8.5463e-05
4.88719e-05
-8.69116e-05
5.23838e-05
-8.84898e-05
5.59354e-05
-9.01811e-05
5.95355e-05
-9.19735e-05
6.31931e-05
-9.38504e-05
6.69175e-05
-9.57983e-05
7.07115e-05
-9.77953e-05
7.45779e-05
-9.98214e-05
7.85178e-05
-0.000101843
-0.000103778
8.25079e-05
5.47447e-06
1.04316e-05
1.28168e-05
-5.72017e-05
1.6854e-05
-9.32523e-05
1.80689e-05
-9.55628e-05
1.91043e-05
-8.7955e-05
2.12046e-05
-8.33438e-05
2.41197e-05
-8.25107e-05
2.73217e-05
-8.32076e-05
3.05439e-05
-8.4177e-05
3.37424e-05
-8.51558e-05
3.69483e-05
-8.62076e-05
4.01896e-05
-8.74003e-05
4.34772e-05
-8.87507e-05
4.68147e-05
-9.02492e-05
5.02064e-05
-9.18815e-05
5.3659e-05
-9.36338e-05
5.71833e-05
-9.54978e-05
6.07885e-05
-9.74555e-05
6.44856e-05
-9.94953e-05
6.82774e-05
-0.000101587
7.21715e-05
-0.000103716
7.61729e-05
-0.000105845
-0.000107863
8.02585e-05
6.19498e-06
4.23669e-06
1.35012e-05
-6.4508e-05
1.68774e-05
-9.66285e-05
1.76467e-05
-9.63321e-05
1.86409e-05
-8.89493e-05
2.07554e-05
-8.54583e-05
2.35333e-05
-8.52886e-05
2.64854e-05
-8.61597e-05
2.94399e-05
-8.71315e-05
3.24008e-05
-8.81166e-05
3.54021e-05
-8.9209e-05
3.84613e-05
-9.04594e-05
4.15824e-05
-9.18718e-05
4.47677e-05
-9.34345e-05
4.80234e-05
-9.51372e-05
5.13586e-05
-9.6969e-05
5.47854e-05
-9.89247e-05
5.83146e-05
-0.000100985
6.19609e-05
-0.000103142
6.57312e-05
-0.000105358
6.96446e-05
-0.000107629
7.37144e-05
-0.000109915
-0.000112089
7.79395e-05
6.92758e-06
-2.69084e-06
1.40897e-05
-7.16703e-05
1.67626e-05
-9.93015e-05
1.71598e-05
-9.67294e-05
1.81576e-05
-8.99471e-05
2.02577e-05
-8.75585e-05
2.28659e-05
-8.78968e-05
2.55702e-05
-8.8864e-05
2.82809e-05
-8.98421e-05
3.1026e-05
-9.08616e-05
3.38326e-05
-9.20156e-05
3.67088e-05
-9.33354e-05
3.96557e-05
-9.48187e-05
4.26774e-05
-9.64562e-05
4.57822e-05
-9.8242e-05
4.89814e-05
-0.000100168
5.22882e-05
-0.000102232
5.57164e-05
-0.000104413
5.9286e-05
-0.000106711
6.30157e-05
-0.000109087
6.69375e-05
-0.000111551
7.10829e-05
-0.00011406
-0.000116497
7.54909e-05
7.6079e-06
-1.02988e-05
1.44755e-05
-7.85381e-05
1.64305e-05
-0.000101257
1.6563e-05
-9.6862e-05
1.76102e-05
-9.09942e-05
1.96695e-05
-8.96177e-05
2.20893e-05
-9.03166e-05
2.45581e-05
-9.13328e-05
2.70479e-05
-9.23318e-05
2.95929e-05
-9.34066e-05
3.22098e-05
-9.46326e-05
3.4901e-05
-9.60266e-05
3.76679e-05
-9.75856e-05
4.05166e-05
-9.9305e-05
4.34566e-05
-0.000101182
4.65008e-05
-0.000103213
4.96632e-05
-0.000105394
5.2964e-05
-0.000107714
5.64282e-05
-0.000110176
6.00937e-05
-0.000112753
6.39996e-05
-0.000115457
6.82075e-05
-0.000118268
-0.000121076
7.27867e-05
8.16724e-06
-1.84662e-05
1.4564e-05
-8.49351e-05
1.5834e-05
-0.000102527
1.58369e-05
-9.68649e-05
1.69708e-05
-9.21279e-05
1.89653e-05
-9.1612e-05
2.11915e-05
-9.25426e-05
2.34442e-05
-9.35853e-05
2.57343e-05
-9.46218e-05
2.80911e-05
-9.57636e-05
3.05225e-05
-9.70641e-05
3.30283e-05
-9.85325e-05
3.5611e-05
-0.000100168
3.82779e-05
-0.000101972
4.10386e-05
-0.000103943
4.39072e-05
-0.000106081
4.68989e-05
-0.000108386
5.00423e-05
-0.000110857
5.33665e-05
-0.0001135
5.69315e-05
-0.000116318
6.07735e-05
-0.000119299
6.4994e-05
-0.000122489
-0.000125736
6.96532e-05
8.54583e-06
-2.70122e-05
1.42997e-05
-9.06893e-05
1.4973e-05
-0.0001032
1.49888e-05
-9.68806e-05
1.6227e-05
-9.33658e-05
1.81361e-05
-9.35209e-05
2.01754e-05
-9.45818e-05
2.22351e-05
-9.56449e-05
2.43444e-05
-9.67312e-05
2.65233e-05
-9.79427e-05
2.87735e-05
-9.93145e-05
3.10944e-05
-0.000100853
3.3489e-05
-0.000102563
3.59642e-05
-0.000104447
3.85293e-05
-0.000106508
4.11991e-05
-0.000108751
4.39908e-05
-0.000111178
4.69405e-05
-0.000113807
5.00801e-05
-0.000116639
5.34868e-05
-0.000119725
5.719e-05
-0.000123002
6.1329e-05
-0.000126628
-0.000130332
6.59258e-05
8.70501e-06
-3.57174e-05
1.36794e-05
-9.56639e-05
1.38934e-05
-0.000103414
1.40441e-05
-9.70311e-05
1.53799e-05
-9.47014e-05
1.71878e-05
-9.53288e-05
1.90555e-05
-9.64496e-05
2.09455e-05
-9.75349e-05
2.28901e-05
-9.86759e-05
2.48997e-05
-9.99526e-05
2.69728e-05
-0.000101388
2.91087e-05
-0.000102989
3.131e-05
-0.000104764
3.35821e-05
-0.00010672
3.59335e-05
-0.00010886
3.8379e-05
-0.000111197
4.09381e-05
-0.000113737
4.36491e-05
-0.000116518
4.65475e-05
-0.000119538
4.97132e-05
-0.00012289
5.31815e-05
-0.00012647
5.71009e-05
-0.000130547
-0.000134721
6.14896e-05
8.63412e-06
-4.43516e-05
1.27494e-05
-9.97792e-05
1.26704e-05
-0.000103335
1.30351e-05
-9.73957e-05
1.44406e-05
-9.61068e-05
1.61384e-05
-9.70269e-05
1.78537e-05
-9.8165e-05
1.95941e-05
-9.92754e-05
2.13862e-05
-0.000100468
2.32333e-05
-0.0001018
2.51322e-05
-0.000103287
2.70819e-05
-0.000104939
2.90835e-05
-0.000106766
3.11404e-05
-0.000108776
3.326e-05
-0.000110979
3.54549e-05
-0.000113392
3.7746e-05
-0.000116028
4.01668e-05
-0.000118939
4.27573e-05
-0.000122129
4.55823e-05
-0.000125715
4.87042e-05
-0.000129592
5.22362e-05
-0.000134079
-0.00013877
5.62857e-05
8.34999e-06
-5.27017e-05
1.15911e-05
-0.00010302
1.1387e-05
-0.000103131
1.19921e-05
-9.80007e-05
1.34274e-05
-9.75422e-05
1.50126e-05
-9.86123e-05
1.65936e-05
-9.97462e-05
1.81992e-05
-0.000100881
1.9847e-05
-0.000102116
2.15362e-05
-0.000103489
2.32629e-05
-0.000105013
2.50248e-05
-0.000106701
2.6821e-05
-0.000108562
2.86525e-05
-0.000110608
3.05242e-05
-0.000112851
3.2445e-05
-0.000115313
3.44337e-05
-0.000118017
3.65129e-05
-0.000121018
3.87243e-05
-0.00012434
4.11047e-05
-0.000128096
4.37532e-05
-0.000132241
4.67166e-05
-0.000137043
-0.000142318
5.0264e-05
7.88825e-06
-6.059e-05
1.03006e-05
-0.000105433
1.0115e-05
-0.000102945
1.09388e-05
-9.88245e-05
1.23624e-05
-9.89659e-05
1.38364e-05
-0.000100086
1.5297e-05
-0.000101207
1.67767e-05
-0.000102361
1.82855e-05
-0.000103625
1.98202e-05
-0.000105024
2.13764e-05
-0.00010657
2.29501e-05
-0.000108275
2.45382e-05
-0.00011015
2.61385e-05
-0.000112209
2.77522e-05
-0.000114465
2.93825e-05
-0.000116943
3.10412e-05
-0.000119676
3.27366e-05
-0.000122714
3.4502e-05
-0.000126106
3.63442e-05
-0.000129938
3.83751e-05
-0.000134272
4.05831e-05
-0.000139251
-0.000145085
4.33504e-05
7.29166e-06
-6.78818e-05
8.97018e-06
-0.000107111
8.90459e-06
-0.000102879
9.89285e-06
-9.98127e-05
1.12684e-05
-0.000100341
1.26341e-05
-0.000101452
1.39824e-05
-0.000102555
1.53408e-05
-0.000103719
1.67138e-05
-0.000104998
1.80971e-05
-0.000106407
1.94856e-05
-0.000107958
2.08738e-05
-0.000109663
2.22558e-05
-0.000111532
2.36262e-05
-0.000113579
2.49807e-05
-0.00011582
2.63157e-05
-0.000118278
2.76309e-05
-0.000120991
2.89193e-05
-0.000124002
3.01905e-05
-0.000127377
3.14272e-05
-0.000131175
3.27014e-05
-0.000135546
3.39761e-05
-0.000140525
-0.000146674
3.55651e-05
6.61228e-06
-7.44941e-05
7.67741e-06
-0.000108176
7.78351e-06
-0.000102986
8.86737e-06
-0.000100897
1.0167e-05
-0.000101641
1.14262e-05
-0.000102711
1.26653e-05
-0.000103794
1.3904e-05
-0.000104958
1.51435e-05
-0.000106238
1.63792e-05
-0.000107643
1.76051e-05
-0.000109184
1.88141e-05
-0.000110872
1.99979e-05
-0.000112716
2.11475e-05
-0.000114729
2.2253e-05
-0.000116925
2.3303e-05
-0.000119328
2.4282e-05
-0.00012197
2.51675e-05
-0.000124888
2.59351e-05
-0.000128144
2.65464e-05
-0.000131786
2.69871e-05
-0.000135987
2.72091e-05
-0.000140747
-0.000146727
2.7262e-05
5.89753e-06
-8.03916e-05
6.4761e-06
-0.000108755
6.76049e-06
-0.00010327
7.87206e-06
-0.000102008
9.07609e-06
-0.000102845
1.02284e-05
-0.000103864
1.13579e-05
-0.000104924
1.24773e-05
-0.000106078
1.35856e-05
-0.000107346
1.46782e-05
-0.000108736
1.57486e-05
-0.000110255
1.67884e-05
-0.000111912
1.77874e-05
-0.000113715
1.87337e-05
-0.000115675
1.96121e-05
-0.000117804
2.04031e-05
-0.000120119
2.10778e-05
-0.000122645
2.15984e-05
-0.000125408
2.19087e-05
-0.000128455
2.1947e-05
-0.000131824
2.16067e-05
-0.000135646
2.08033e-05
-0.000139944
-0.000145195
1.92711e-05
5.18597e-06
-8.55775e-05
5.39973e-06
-0.000108969
5.83208e-06
-0.000103702
6.91325e-06
-0.00010309
8.00855e-06
-0.000103941
9.05161e-06
-0.000104907
1.00693e-05
-0.000105942
1.10689e-05
-0.000107077
1.20487e-05
-0.000108326
1.30038e-05
-0.000109691
1.39276e-05
-0.000111179
1.48112e-05
-0.000112796
1.56436e-05
-0.000114548
1.64106e-05
-0.000116442
1.70933e-05
-0.000118487
1.76656e-05
-0.000120691
1.80903e-05
-0.000123069
1.83177e-05
-0.000125636
1.82744e-05
-0.000128412
1.7876e-05
-0.000131426
1.69625e-05
-0.000134733
1.53846e-05
-0.000138366
-0.000142509
1.26987e-05
4.50373e-06
-9.00811e-05
4.45918e-06
-0.000108924
4.98866e-06
-0.000104232
5.99412e-06
-0.000104095
6.97186e-06
-0.000104918
7.90187e-06
-0.000105837
8.80478e-06
-0.000106845
9.68429e-06
-0.000107957
1.05383e-05
-0.00010918
1.13623e-05
-0.000110515
1.21499e-05
-0.000111967
1.28925e-05
-0.000113539
1.35789e-05
-0.000115234
1.41941e-05
-0.000117057
1.47173e-05
-0.00011901
1.51196e-05
-0.000121094
1.53618e-05
-0.000123311
1.5391e-05
-0.000125665
1.51343e-05
-0.000128155
1.44973e-05
-0.000130789
1.33216e-05
-0.000133557
1.14144e-05
-0.000136459
-0.000139446
8.35194e-06
3.86455e-06
-9.39457e-05
3.64509e-06
-0.000108705
4.21718e-06
-0.000104804
5.1146e-06
-0.000104992
5.96849e-06
-0.000105772
6.78113e-06
-0.00010665
7.5663e-06
-0.00010763
8.32572e-06
-0.000108716
9.05728e-06
-0.000109911
9.75706e-06
-0.000111215
1.04193e-05
-0.000112629
1.10361e-05
-0.000114155
1.15968e-05
-0.000115795
1.20867e-05
-0.000117547
1.24856e-05
-0.000119409
1.27662e-05
-0.000121374
1.28933e-05
-0.000123438
1.282e-05
-0.000125591
1.24867e-05
-0.000127822
1.18104e-05
-0.000130113
1.06726e-05
-0.00013242
8.90477e-06
-0.000134691
-0.000136776
6.23402e-06
3.27161e-06
-9.72173e-05
2.93869e-06
-0.000108372
3.50292e-06
-0.000105368
4.27133e-06
-0.000105761
4.99681e-06
-0.000106498
5.68812e-06
-0.000107341
6.35322e-06
-0.000108295
6.99287e-06
-0.000109356
7.60522e-06
-0.000110524
8.18706e-06
-0.000111797
8.73352e-06
-0.000113176
9.23768e-06
-0.00011466
9.68992e-06
-0.000116248
1.0077e-05
-0.000117934
1.03814e-05
-0.000119713
1.05803e-05
-0.000121573
1.06457e-05