/*--------------------------------*- C++ -*----------------------------------*\
| =========                 |                                                 |
| \\      /  F ield         | OpenFOAM: The Open Source CFD Toolbox           |
|  \\    /   O peration     | Version:  2206                                  |
|   \\  /    A nd           | Website:  www.openfoam.com                      |
|    \\/     M anipulation  |                                                 |
\*---------------------------------------------------------------------------*/
FoamFile
{
    version     2.0;
    format      ascii;
    arch        "LSB;label=32;scalar=64";
    class       surfaceScalarField;
    location    "0.05";
    object      alphaPhi0.water;
}
// * * * * * * * * * * * * * * * * * * * * * * * * * * * * * * * * * * * * * //

dimensions      [0 3 -1 0 0 0 0];

oriented        oriented;

internalField   nonuniform List<scalar> 
4432
(
6.92909e-06
-6.92909e-06
1.41642e-05
-7.23517e-06
2.14232e-05
-7.25896e-06
2.88802e-05
-7.45705e-06
3.66298e-05
-7.74958e-06
4.47695e-05
-8.13968e-06
5.34172e-05
-8.64768e-06
6.27195e-05
-9.30233e-06
7.28638e-05
-1.01444e-05
8.40956e-05
-1.12318e-05
9.6745e-05
-1.26494e-05
0.00011125
-1.4505e-05
0.000128271
-1.70214e-05
0.000148607
-2.03353e-05
0.00017271
-2.41032e-05
0.000203383
-3.25582e-05
0.000154279
-2.81988e-05
1.53509e-05
-4.59959e-06
7.97137e-06
1.09399e-06
3.59345e-06
1.10889e-06
1.06423e-06
9.17245e-07
2.56224e-07
4.10732e-07
9.99464e-08
6.70136e-06
-1.36305e-05
1.36617e-05
-1.41955e-05
2.06391e-05
-1.42364e-05
2.77797e-05
-1.45977e-05
3.51564e-05
-1.51262e-05
4.28409e-05
-1.58241e-05
5.09145e-05
-1.67212e-05
5.94698e-05
-1.78576e-05
6.86131e-05
-1.92877e-05
7.84663e-05
-2.1085e-05
8.91683e-05
-2.33514e-05
0.000100881
-2.62179e-05
0.00011379
-2.99302e-05
0.000128081
-3.46259e-05
0.000144094
-4.01166e-05
0.000121038
-4.7823e-05
1.42761e-05
-2.02765e-05
7.04801e-07
-2.83896e-06
1.7394e-07
1.78289e-07
2.21524e-07
2.02134e-07
2.85371e-08
1.46077e-07
-1.34581e-08
1.29887e-07
1.93625e-08
6.27718e-06
-1.99077e-05
1.27403e-05
-2.06586e-05
1.92106e-05
-2.07067e-05
2.57915e-05
-2.11786e-05
3.25267e-05
-2.18614e-05
3.94554e-05
-2.27529e-05
4.66166e-05
-2.38825e-05
5.40473e-05
-2.52883e-05
6.17787e-05
-2.70191e-05
6.98314e-05
-2.91377e-05
7.82045e-05
-3.17245e-05
8.68628e-05
-3.48762e-05
9.56836e-05
-3.87509e-05
0.000104434
-4.33767e-05
0.000112915
-4.85976e-05
5.34721e-05
-4.75057e-05
4.0604e-06
-8.29787e-06
4.08061e-07
-6.35717e-07
2.93833e-08
1.43124e-07
5.30638e-09
6.34412e-08
-4.33996e-09
5.2099e-08
-4.80951e-10
1.96652e-08
4.47235e-09
5.71641e-06
-2.56241e-05
1.15378e-05
-2.648e-05
1.73583e-05
-2.65271e-05
2.32357e-05
-2.70558e-05
2.91861e-05
-2.78117e-05
3.52213e-05
-2.8788e-05
4.13469e-05
-3.00081e-05
4.75592e-05
-3.15006e-05
5.38401e-05
-3.33e-05
6.01497e-05
-3.54474e-05
6.64156e-05
-3.79904e-05
7.25186e-05
-4.09792e-05
7.82566e-05
-4.44889e-05
8.3349e-05
-4.84691e-05
8.75033e-05
-5.27519e-05
2.2466e-05
-4.18165e-05
1.36532e-06
-3.44012e-06
6.80082e-09
3.06429e-07
-1.63954e-08
6.13654e-08
-1.54919e-08
1.8937e-08
-6.47898e-09
1.21244e-08
-8.43065e-10
4.09064e-09
1.05049e-09
5.07913e-06
-3.07032e-05
1.01914e-05
-3.15924e-05
1.52985e-05
-3.16342e-05
2.04182e-05
-3.21755e-05
2.55464e-05
-3.294e-05
3.06758e-05
-3.39175e-05
3.57914e-05
-3.51237e-05
4.08674e-05
-3.65767e-05
4.58636e-05
-3.82963e-05
5.07204e-05
-4.03042e-05
5.5352e-05
-4.2622e-05
5.964e-05
-4.52672e-05
6.34174e-05
-4.82663e-05
6.64893e-05
-5.1541e-05
6.86995e-05
-5.49621e-05
8.33821e-06
-3.48919e-05
1.32753e-07
-1.38494e-06
-1.02667e-08
3.46375e-07
-3.91946e-09
2.19043e-08
-1.85872e-09
5.33986e-09
-6.68179e-10
2.95746e-09
-8.20561e-11
9.28527e-10
2.99832e-10
4.41868e-06
-3.51218e-05
8.81545e-06
-3.59891e-05
1.3206e-05
-3.60246e-05
1.75777e-05
-3.65472e-05
2.19144e-05
-3.72767e-05
2.61985e-05
-3.82015e-05
3.04053e-05
-3.93306e-05
3.45014e-05
-4.06729e-05
3.84423e-05
-4.22374e-05
4.21702e-05
-4.4032e-05
4.56108e-05
-4.60625e-05
4.86726e-05
-4.83289e-05
5.12405e-05
-5.08341e-05
5.32047e-05
-5.35052e-05
5.45014e-05
-5.62588e-05
3.09929e-06
-2.86077e-05
-1.14148e-07
-3.04449e-07
-1.91821e-09
2.07202e-07
-8.29562e-11
8.51637e-09
3.95293e-12
2.01806e-09
9.75852e-12
8.73221e-10
1.45876e-12
2.69359e-10
1.10026e-10
3.7751e-06
-3.8897e-05
7.49181e-06
-3.97059e-05
1.12035e-05
-3.97363e-05
1.48775e-05
-4.02213e-05
1.84923e-05
-4.08915e-05
2.20257e-05
-4.1735e-05
2.5451e-05
-4.27558e-05
2.87349e-05
-4.39568e-05
3.18373e-05
-4.53398e-05
3.47101e-05
-4.69048e-05
3.72967e-05
-4.86492e-05
3.95332e-05
-5.05654e-05
4.13432e-05
-5.26441e-05
4.26681e-05
-5.483e-05
4.34764e-05
-5.70671e-05
8.71143e-07
-2.33537e-05
-1.12611e-07
3.96541e-07
-1.74639e-09
8.71779e-08
1.96882e-11
3.53797e-09
3.80572e-11
7.93803e-10
2.64453e-11
3.09944e-10
7.22727e-12
9.75344e-11
4.19514e-11
3.1754e-06
-4.20724e-05
6.27106e-06
-4.28016e-05
9.3648e-06
-4.283e-05
1.24124e-05
-4.32688e-05
1.53906e-05
-4.38696e-05
1.82773e-05
-4.46217e-05
2.10469e-05
-4.55255e-05
2.36701e-05
-4.65801e-05
2.61136e-05
-4.77832e-05
2.83398e-05
-4.91309e-05
3.03075e-05
-5.06168e-05
3.19743e-05
-5.22323e-05
3.32941e-05
-5.39638e-05
3.428e-05
-5.58159e-05
3.48203e-05
-5.76075e-05
5.35004e-07
-1.87692e-05
-2.72417e-08
8.97453e-07
-1.27833e-09
2.73074e-08
7.35605e-11
1.15166e-09
3.11055e-11
2.36921e-10
1.77837e-11
9.39644e-11
8.61956e-12
3.15295e-11
1.37104e-11
4.57265e-32
-1.07869e-30
4.85792e-34
-7.34947e-33
6.05631e-35
-2.52129e-34
2.6207e-36
-8.32931e-35
3.21704e-38
-1.67111e-36
2.12671e-40
-1.00648e-38
8.50962e-43
-2.72494e-41
4.39092e-46
2.81226e-46
4.58418e-48
7.83934e-48
4.005e-50
1.27018e-49
3.16685e-52
1.53259e-51
2.20327e-54
1.53724e-53
1.30921e-56
1.31036e-55
6.39867e-59
9.44101e-58
2.43843e-61
5.62794e-60
6.66096e-64
2.67329e-62
1.56075e-66
9.49813e-65
4.48615e-67
2.24231e-67
5.26016e-70
1.94771e-29
-9.69589e-29
2.31978e-31
-5.46337e-30
2.59038e-32
-1.44536e-31
1.22938e-33
-3.49998e-32
1.7523e-35
-8.27611e-34
1.3003e-37
-5.75428e-36
5.13915e-40
-1.6263e-38
3.02381e-43
1.011e-42
3.50889e-45
2.26915e-44
2.87849e-47
3.63604e-46
2.31403e-49
4.42081e-48
1.63353e-51
4.48425e-50
9.83371e-54
3.8671e-52
4.86321e-56
2.81792e-54
1.87362e-58
1.6983e-56
5.17144e-61
8.15228e-59
8.76899e-64
2.92857e-61
1.27959e-66
6.99416e-64
8.33454e-67
4.53591e-27
-2.93129e-26
5.53558e-29
-1.69274e-27
5.88388e-30
-4.51183e-29
2.97355e-31
-7.41379e-30
4.8791e-33
-1.96354e-31
4.07357e-35
-1.54494e-33
1.47454e-37
-4.09705e-36
1.31033e-40
9.08503e-40
1.49679e-42
1.56074e-41
1.30963e-44
2.46759e-43
1.07886e-46
3.0362e-45
7.77062e-49
3.13064e-47
4.75747e-51
2.74421e-49
2.38701e-53
2.02999e-51
9.3134e-56
1.24012e-53
2.82443e-58
6.03818e-56
6.18781e-61
2.19331e-58
8.13741e-64
5.29817e-61
6.40719e-64
7.10994e-25
-5.26192e-24
9.12827e-27
-3.10965e-25
8.78735e-28
-8.21036e-27
4.66355e-29
-9.55655e-28
8.7195e-31
-2.76914e-29
7.99545e-33
-2.36722e-31
1.95608e-35
-4.16468e-34
4.44854e-38
2.85834e-37
5.13646e-40
7.44284e-39
4.72711e-42
1.17009e-40
4.03059e-44
1.46905e-42
2.98723e-46
1.55232e-44
1.87373e-48
1.39351e-46
9.59937e-51
1.05362e-48
4.14182e-53
6.58057e-51
1.51471e-55
3.26086e-53
3.33349e-58
1.20493e-55
4.52281e-61
2.96088e-58
3.65751e-61
8.18932e-23
-6.37837e-22
1.14432e-24
-3.86592e-23
8.94288e-26
-1.00558e-24
4.89741e-27
-7.65123e-26
1.02712e-28
-2.33654e-27
9.44193e-31
-1.96568e-29
8.87347e-34
1.56048e-33
1.25624e-35
1.20232e-34
1.37025e-37
2.66178e-36
1.3796e-39
4.19388e-38
1.22345e-41
5.39589e-40
9.366e-44
5.86371e-42
6.0369e-46
5.4072e-44
3.41105e-48
4.19849e-46
1.70641e-50
2.67991e-48
6.15786e-53
1.35531e-50
1.40562e-55
5.10071e-53
1.97989e-58
1.30544e-55
1.61734e-58
7.15204e-21
-5.24557e-20
1.12452e-22
-3.21247e-21
5.68476e-24
-8.23436e-23
3.07759e-25
-3.40049e-24
7.0213e-27
-9.98529e-26
4.93629e-29
-6.08863e-28
1.76817e-31
8.79996e-31
2.56063e-33
3.43686e-32
2.95658e-35
7.06816e-34
3.12408e-37
1.12278e-35
2.88053e-39
1.4808e-37
2.27679e-41
1.65384e-39
1.62341e-43
1.56728e-41
1.04489e-45
1.24558e-43
5.29171e-48
8.12033e-46
1.87925e-50
4.18453e-48
4.51854e-53
1.60529e-50
6.56131e-56
4.23935e-53
5.26799e-56
4.1957e-19
-7.43675e-18
8.2607e-21
-7.79615e-19
2.14528e-22
-6.81958e-21
5.97144e-24
-8.82167e-23
1.07208e-25
-7.89962e-25
1.54458e-27
2.47678e-27
2.52004e-29
2.37632e-28
3.59637e-31
6.5611e-30
4.53555e-33
1.29894e-31
5.00318e-35
2.08337e-33
4.77329e-37
2.80575e-35
4.28052e-39
3.2073e-37
3.41518e-41
3.10484e-39
2.17779e-43
2.5151e-41
1.06621e-45
1.66535e-43
3.87567e-48
8.69386e-46
9.66792e-51
3.37662e-48
1.48789e-53
9.07669e-51
1.13991e-53
4.75771e-17
-1.24199e-15
5.08809e-19
-5.30917e-17
1.09706e-20
-1.1525e-18
2.60965e-22
-1.45459e-20
5.37133e-24
2.89026e-24
1.07431e-25
7.47566e-25
1.85674e-27
2.64841e-26
2.79886e-29
6.44204e-28
3.67869e-31
1.24742e-29
4.42131e-33
2.01139e-31
4.79208e-35
2.74543e-33
4.41539e-37
3.18255e-35
3.40376e-39
3.11526e-37
2.14327e-41
2.54438e-39
1.06214e-43
1.6959e-41
3.90567e-46
8.90038e-44
9.91687e-49
3.4726e-46
1.83283e-51
9.39584e-49
1.19373e-51
1.56019e-06
-4.36326e-05
3.07025e-06
-4.43116e-05
4.58107e-06
-4.43408e-05
6.0648e-06
-4.47526e-05
7.50861e-06
-4.53134e-05
8.90049e-06
-4.60136e-05
1.02271e-05
-4.68522e-05
1.14736e-05
-4.78267e-05
1.26239e-05
-4.89335e-05
1.36603e-05
-5.01673e-05
1.45639e-05
-5.15205e-05
1.53139e-05
-5.29822e-05
1.58941e-05
-5.4544e-05
1.62287e-05
-5.61506e-05
1.64595e-05
-5.78382e-05
-9.22763e-09
-1.63211e-05
-1.55033e-08
9.38952e-07
-2.01578e-10
1.01614e-08
2.65529e-11
7.42827e-10
1.45693e-11
1.20816e-10
6.82611e-12
4.0764e-11
1.80983e-12
1.55269e-11
5.68965e-12
2.8082e-12
1.39148e-06
-4.50241e-05
2.731e-06
-4.56512e-05
4.07256e-06
-4.56824e-05
5.38722e-06
-4.60672e-05
6.66286e-06
-4.65891e-05
7.88841e-06
-4.72391e-05
9.05165e-06
-4.80154e-05
1.01396e-05
-4.89146e-05
1.11381e-05
-4.9932e-05
1.20323e-05
-5.10615e-05
1.28066e-05
-5.22948e-05
1.3445e-05
-5.36206e-05
1.39305e-05
-5.50295e-05
1.42441e-05
-5.64642e-05
1.44185e-05
-5.80126e-05
-6.65887e-08
-1.44098e-05
-3.94771e-09
9.2152e-07
-1.38296e-10
8.35727e-09
6.71705e-12
6.18232e-10
7.15508e-12
9.21278e-11
2.6541e-12
2.23623e-11
4.62359e-13
6.53366e-12
2.23362e-12
6.56828e-13
1.23312e-06
-4.62573e-05
2.41408e-06
-4.68321e-05
3.59808e-06
-4.68664e-05
4.75621e-06
-4.72254e-05
5.87722e-06
-4.77102e-05
6.95091e-06
-4.83128e-05
7.96641e-06
-4.90309e-05
8.91232e-06
-4.98605e-05
9.77658e-06
-5.07962e-05
1.05468e-05
-5.18317e-05
1.12105e-05
-5.29585e-05
1.17556e-05
-5.41657e-05
1.217e-05
-5.5444e-05
1.24493e-05
-5.67435e-05
1.2603e-05
-5.81663e-05
-1.59377e-07
-1.26652e-05
1.22983e-08
7.63296e-07
6.59539e-10
2.14008e-08
5.08568e-11
1.3165e-09
6.31803e-12
1.34079e-10
1.87214e-12
1.99548e-11
4.90745e-13
4.19113e-12
9.84546e-13
3.01124e-13
1.08515e-06
-4.73424e-05
2.11885e-06
-4.78658e-05
3.15664e-06
-4.79042e-05
4.1701e-06
-4.82388e-05
5.14902e-06
-4.8689e-05
6.08408e-06
-4.92478e-05
6.96571e-06
-4.99126e-05
7.784e-06
-5.06787e-05
8.52879e-06
-5.1541e-05
9.18992e-06
-5.24928e-05
9.75741e-06
-5.3526e-05
1.02221e-05
-5.46304e-05
1.05757e-05
-5.57976e-05
1.08168e-05
-5.69846e-05
1.09484e-05
-5.82978e-05
-1.6847e-07
-1.10799e-05
2.70395e-09
5.8137e-07
3.81033e-10
2.33755e-08
4.82906e-11
1.59172e-09
6.63745e-12
1.63907e-10
1.0173e-12
2.1289e-11
2.36236e-13
3.3335e-12
5.87933e-13
1.18355e-13
9.47102e-07
-4.82895e-05
1.84396e-06
-4.87627e-05
2.74594e-06
-4.88062e-05
3.62558e-06
-4.91184e-05
4.47363e-06
-4.9537e-05
5.28183e-06
-5.0056e-05
6.04171e-06
-5.06724e-05
6.74474e-06
-5.13817e-05
7.38235e-06
-5.21787e-05
7.94628e-06
-5.30567e-05
8.4286e-06
-5.40083e-05
8.82244e-06
-5.50242e-05
9.12172e-06
-5.60968e-05
9.32594e-06
-5.71889e-05
9.43492e-06
-5.84068e-05
-1.4613e-07
-9.65194e-06
-2.33518e-09
4.18297e-07
7.36432e-11
1.934e-08
1.5236e-11
1.46257e-09
2.74329e-12
1.50038e-10
3.98613e-13
1.87163e-11
8.60522e-14
2.51689e-12
3.69105e-13
4.21092e-14
8.18301e-07
-4.91077e-05
1.58794e-06
-4.95323e-05
2.36346e-06
-4.95817e-05
3.11908e-06
-4.98739e-05
3.84628e-06
-5.02641e-05
4.53789e-06
-5.07476e-05
5.18641e-06
-5.13209e-05
5.78457e-06
-5.19799e-05
6.32514e-06
-5.27192e-05
6.8013e-06
-5.35328e-05
7.20686e-06
-5.44138e-05
7.53675e-06
-5.53541e-05
7.78667e-06
-5.63467e-05
7.95787e-06
-5.736e-05
8.0471e-06
-5.84958e-05
-1.16419e-07
-8.36794e-06
-4.76605e-09
2.88542e-07
-2.86203e-10
1.29177e-08
-2.25979e-11
9.90503e-10
-2.40302e-12
1.01505e-10
-1.80537e-13
1.20046e-11
-2.49803e-15
1.52769e-12
2.07206e-13
1.36219e-14
6.98043e-07
-4.98056e-05
1.34955e-06
-5.01836e-05
2.00715e-06
-5.02391e-05
2.64763e-06
-5.05142e-05
3.26303e-06
-5.08792e-05
3.84696e-06
-5.13313e-05
4.39285e-06
-5.18665e-05
4.89453e-06
-5.24812e-05
5.34606e-06
-5.31704e-05
5.74175e-06
-5.39282e-05
6.07668e-06
-5.47483e-05
6.3467e-06
-5.56238e-05
6.54805e-06
-5.65476e-05
6.68818e-06
-5.74996e-05
6.75365e-06
-5.85604e-05
-8.54217e-08
-7.22237e-06
-3.64263e-09
1.92458e-07
-2.12984e-10
8.29799e-09
-1.99913e-11
6.37462e-10
-2.19098e-12
6.26602e-11
-2.42469e-13
6.93619e-12
-2.18404e-14
8.10627e-13
1.02414e-13
2.54233e-15
5.84218e-07
-5.03889e-05
1.12676e-06
-5.07251e-05
1.6749e-06
-5.07862e-05
2.20808e-06
-5.10462e-05
2.71933e-06
-5.13894e-05
3.20293e-06
-5.18138e-05
3.65335e-06
-5.23158e-05
4.06525e-06
-5.28918e-05
4.43367e-06
-5.35374e-05
4.75412e-06
-5.42471e-05
5.023e-06
-5.50155e-05
5.23682e-06
-5.58357e-05
5.39138e-06
-5.67e-05
5.49999e-06
-5.76058e-05
5.49936e-06
-5.85557e-05
-5.37908e-08
-6.18715e-06
-1.81606e-09
1.30415e-07
-1.08991e-10
5.58811e-09
-1.0763e-11
4.27635e-10
-1.24113e-12
3.94619e-11
-1.42212e-13
4.01547e-12
-1.24662e-14
4.21853e-13
4.79504e-14
2.24526e-15
4.79326e-07
-5.08634e-05
9.18761e-07
-5.11596e-05
1.36352e-06
-5.1226e-05
1.79484e-06
-5.14724e-05
2.20753e-06
-5.17968e-05
2.59676e-06
-5.21974e-05
2.95801e-06
-5.26712e-05
3.28637e-06
-5.32141e-05
3.57698e-06
-5.38213e-05
3.82553e-06
-5.44885e-05
4.02937e-06
-5.52116e-05
4.18683e-06
-5.59847e-05
4.30252e-06
-5.68062e-05
4.40111e-06
-5.76938e-05
4.1619e-06
-5.82988e-05
-2.78223e-08
-5.20159e-06
-3.62791e-10
9.51248e-08
-1.75437e-11
4.35537e-09
-2.57027e-12
3.45241e-10
-4.46998e-13
2.92784e-11
-6.02213e-14
2.62028e-12
-5.1674e-15
2.36954e-13
2.3661e-14
1.89291e-15
3.9935e-07
-5.12394e-05
7.26963e-07
-5.14634e-05
1.07107e-06
-5.1546e-05
1.40619e-06
-5.17829e-05
1.72887e-06
-5.2094e-05
2.03323e-06
-5.24752e-05
2.31445e-06
-5.29247e-05
2.56824e-06
-5.34388e-05
2.78987e-06
-5.40121e-05
2.97361e-06
-5.46393e-05
3.11201e-06
-5.53149e-05
3.19347e-06
-5.60286e-05
3.21735e-06
-5.67879e-05
3.27222e-06
-5.77024e-05
2.4254e-06
-5.73758e-05
-3.0127e-08
-4.9324e-06
-4.09338e-10
6.04669e-08
1.28622e-11
3.39467e-09
1.27822e-12
3.04671e-10
-8.64756e-14
2.65942e-11
-2.91212e-14
2.11906e-12
-3.05699e-15
1.46779e-13
1.2078e-14
9.39329e-16
2.93807e-07
-5.14223e-05
5.37441e-07
-5.15945e-05
8.15935e-07
-5.17109e-05
1.07685e-06
-5.19278e-05
1.32479e-06
-5.22229e-05
1.55824e-06
-5.25857e-05
1.77431e-06
-5.3013e-05
1.96965e-06
-5.35006e-05
2.14057e-06
-5.40431e-05
2.28187e-06
-5.46332e-05
2.38199e-06
-5.52589e-05
2.41459e-06
-5.58962e-05
2.28239e-06
-5.64733e-05
1.94337e-06
-5.71649e-05
-1.57541e-08
-5.50959e-05
-6.14312e-08
-7.82461e-06
-8.83424e-10
6.54936e-09
4.25942e-11
2.25937e-09
7.68729e-12
3.14156e-10
4.31528e-13
3.09717e-11
-8.43654e-15
2.38158e-12
-2.28434e-15
1.2261e-13
6.29559e-15
4.02289e-16
2.43727e-07
-5.11559e-05
4.34912e-07
-5.12707e-05
6.33005e-07
-5.13888e-05
8.33562e-07
-5.15996e-05
1.02733e-06
-5.18764e-05
1.21207e-06
-5.22157e-05
1.38453e-06
-5.26134e-05
1.54047e-06
-5.30638e-05
1.6751e-06
-5.35612e-05
1.78231e-06
-5.40973e-05
1.85718e-06
-5.46601e-05
1.90974e-06
-5.52435e-05
1.85232e-06
-5.56455e-05
1.56385e-06
-5.60499e-05
2.5167e-06
-5.38646e-05
-6.03722e-08
-1.35108e-05
3.42676e-09
-5.60773e-08
6.61651e-10
4.95265e-09
5.5457e-11
9.00948e-10
2.07922e-12
8.23917e-11
1.14231e-14
4.29086e-12
-1.75587e-16
1.2874e-13
4.88464e-15
1.21732e-16
1.15407e-07
-3.25213e-05
2.30425e-07
-3.25372e-05
3.48134e-07
-3.24956e-05
4.60056e-07
-3.24654e-05
5.65834e-07
-3.24168e-05
6.63927e-07
-3.23501e-05
7.51545e-07
-3.22603e-05
8.2407e-07
-3.21401e-05
8.73856e-07
-3.19792e-05
8.89102e-07
-3.17524e-05
8.67093e-07
-3.14498e-05
7.99689e-07
-3.11628e-05
1.24135e-06
-2.97054e-05
1.80239e-06
-2.84529e-05
5.47698e-06
-1.65062e-05
-3.40113e-07
-8.37783e-06
9.82966e-08
-6.67642e-07
2.05787e-08
8.38889e-08
1.74709e-09
1.96432e-08
7.77783e-11
1.71692e-09
1.66861e-12
7.71058e-11
2.71942e-14
1.68324e-12
2.98097e-14
3.45391e-16
-7.02203e-08
-5.11818e-26
-1.70808e-07
-7.0295e-24
-2.4876e-07
-3.67661e-22
-3.33336e-07
-1.26965e-20
-4.18585e-07
-3.25959e-19
-5.03923e-07
-6.59654e-18
-5.87819e-07
-1.08973e-16
-6.67514e-07
-1.51893e-15
-7.37644e-07
-1.78971e-14
-7.76492e-07
-1.80119e-13
-7.90531e-07
-1.6163e-12
-7.54361e-07
-1.29226e-11
-1.25883e-07
-9.69421e-11
1.20353e-06
-6.46907e-10
4.76415e-07
-2.35473e-09
2.02637e-06
-2.32084e-08
4.10382e-07
-3.0996e-07
3.76478e-08
1.52857e-07
3.64099e-09
5.28626e-08
7.08102e-11
5.19054e-09
-6.37776e-13
1.46435e-10
-3.31522e-15
1.03314e-12
8.04436e-15
-2.03639e-17
-5.38946e-26
-1.33144e-26
-5.61275e-24
-1.50639e-24
-2.93198e-22
-8.22884e-23
-1.00996e-20
-3.00405e-21
-2.57808e-19
-8.21194e-20
-5.17017e-18
-1.78146e-18
-8.43597e-17
-3.17046e-17
-1.144e-15
-4.90178e-16
-1.30432e-14
-6.41186e-15
-1.25502e-13
-7.23578e-14
-1.0109e-12
-7.76602e-13
-6.4268e-12
-7.89069e-12
-2.83445e-11
-7.78202e-11
-2.93371e-11
-6.64067e-10
1.08517e-10
-2.59441e-09
1.04931e-10
-2.36222e-08
-5.48581e-09
-4.37393e-08
-3.25812e-08
7.64298e-08
-3.94555e-09
2.43989e-08
-1.2639e-10
1.27028e-09
-8.78097e-13
2.08359e-11
-4.61704e-15
1.5807e-13
8.31628e-16
-1.60893e-17
-1.44751e-26
-1.73436e-27
-1.31495e-24
-2.21949e-25
-7.27587e-23
-1.21899e-23
-2.69907e-21
-4.50892e-22
-7.49556e-20
-1.25327e-20
-1.65121e-18
-2.78259e-19
-2.98237e-17
-5.12242e-18
-4.68077e-16
-8.05048e-17
-6.22624e-15
-1.08853e-15
-7.15684e-14
-1.27175e-14
-7.75848e-13
-1.37561e-13
-7.95354e-12
-1.36401e-12
-7.9602e-11
-1.20464e-11
-7.02485e-10
-9.46504e-11
-3.06104e-09
-4.92946e-10
-2.74411e-08
-1.75273e-09
-6.30288e-08
-2.37876e-09
-1.76949e-08
4.09484e-09
-9.31866e-10
3.03854e-09
-1.60966e-11
2.50798e-10
-1.32202e-13
4.85424e-12
-7.0388e-16
3.17417e-14
1.31486e-16
-2.51616e-18
-1.79805e-27
-9.55697e-29
-2.13812e-25
-1.28306e-26
-1.20033e-23
-6.95943e-25
-4.53772e-22
-2.53134e-23
-1.28902e-20
-6.91247e-22
-2.92309e-19
-1.50416e-20
-5.49395e-18
-2.70757e-19
-8.69707e-17
-4.17888e-18
-1.18507e-15
-5.60876e-17
-1.3908e-14
-7.16415e-16
-1.47789e-13
-1.05485e-14
-1.44784e-12
-1.204e-13
-1.28849e-11
-1.00667e-12
-1.02878e-10
-7.02856e-12
-5.74293e-10
-3.31266e-11
-3.42423e-09
-9.74513e-11
-6.72774e-09
-2.31406e-10
-2.99064e-09
2.16627e-10
-2.31677e-10
2.14867e-10
-4.38083e-12
2.24112e-11
-2.90982e-14
5.67904e-13
-1.32385e-16
3.60248e-15
1.18547e-17
-3.60563e-19
-9.69251e-29
-1.93778e-30
-1.28248e-26
-2.61151e-28
-7.11569e-25
-1.40964e-26
-2.61836e-23
-5.10139e-25
-7.20885e-22
-1.38876e-23
-1.5815e-20
-3.00905e-22
-2.87034e-19
-5.38504e-21
-4.46337e-18
-8.23668e-20
-6.03682e-17
-1.08822e-18
-7.7168e-16
-1.30633e-17
-1.11786e-14
-1.81899e-16
-1.28884e-13
-2.69966e-15
-1.109e-12
-2.40415e-14
-7.93849e-12
-1.64445e-13
-3.99182e-11
-8.19367e-13
-1.76209e-10
-2.55479e-12
-4.22208e-10
-1.00355e-11
-2.15921e-10
2.9091e-12
-2.14273e-11
1.06593e-11
-5.27912e-13
1.35657e-12
-3.5551e-15
5.03447e-14
-1.16839e-17
3.15753e-16
5.99302e-19
-4.41696e-20
-1.94755e-30
-1.29056e-32
-2.62532e-28
-1.73728e-30
-1.4016e-26
-9.3675e-29
-5.06723e-25
-3.4198e-27
-1.37987e-23
-9.38666e-26
-2.99493e-22
-2.05063e-24
-5.37634e-21
-3.69943e-23
-8.25992e-20
-5.70049e-22
-1.09558e-18
-7.5437e-21
-1.32179e-17
-8.76792e-20
-1.83214e-16
-9.66202e-19
-2.71053e-15
-1.2088e-17
-2.51497e-14
-1.67832e-16
-1.78995e-13
-1.5035e-15
-9.41641e-13
-8.67581e-15
-4.1119e-12
-3.3852e-14
-1.39026e-11
-2.25174e-13
-1.10318e-11
-1.75354e-13
-1.32588e-12
3.60772e-13
-4.90361e-14
6.44466e-14
-3.34777e-16
2.68168e-15
-5.62361e-19
1.33829e-17
3.73773e-20
-4.58592e-21
-1.11572e-32
-5.61053e-35
-1.06958e-30
-5.27787e-33
-6.1654e-29
-3.02519e-31
-2.36685e-27
-1.15492e-29
-6.79604e-26
-3.29161e-28
-1.54794e-24
-7.43504e-27
-2.91248e-23
-1.38602e-25
-4.62362e-22
-2.17796e-24
-6.33812e-21
-2.95081e-23
-7.70539e-20
-3.52773e-22
-8.74742e-19
-3.77804e-21
-1.09374e-17
-3.57812e-20
-1.54909e-16
-3.26829e-19
-1.53042e-15
-3.61658e-18
-1.07532e-14
-4.17102e-17
-3.5916e-14
-2.26022e-16
-2.2179e-13
-1.63265e-15
-3.9948e-13
-2.39398e-15
-6.39416e-14
6.79148e-15
-2.81186e-15
2.08067e-15
-1.42882e-17
6.64581e-17
-3.38179e-20
5.02642e-19
2.40377e-21
-4.0585e-22
-4.7341e-35
-2.09546e-37
-5.323e-33
-2.42407e-35
-3.07989e-31
-1.43121e-33
-1.18353e-29
-5.60674e-32
-3.39861e-28
-1.64083e-30
-7.74432e-27
-3.81049e-29
-1.4588e-25
-7.31881e-28
-2.31856e-24
-1.18691e-26
-3.17792e-23
-1.66149e-25
-3.79453e-22
-2.02917e-24
-4.01707e-21
-2.19134e-23
-3.8314e-20
-2.11531e-22
-3.52965e-19
-1.84364e-21
-3.84801e-18
-1.43224e-20
-4.37911e-17
-9.4804e-20
-2.63976e-16
-4.70464e-19
-2.27379e-15
-2.66902e-18
-8.44532e-15
-6.15848e-18
-2.01199e-15
6.17939e-17
-6.30101e-17
5.00901e-17
-4.73298e-19
2.20579e-18
-2.26464e-21
2.15894e-20
1.28419e-22
-2.92572e-23
-2.02281e-37
-4.2489e-40
-2.44056e-35
-5.29807e-38
-1.4509e-33
-3.25045e-36
-5.71612e-32
-1.3201e-34
-1.68434e-30
-4.00908e-33
-3.95023e-29
-9.69371e-32
-7.65854e-28
-1.93911e-30
-1.25874e-26
-3.29273e-29
-1.78499e-25
-4.83375e-28
-2.20743e-24
-6.20409e-27
-2.40175e-23
-7.03563e-26
-2.33252e-22
-7.11869e-25
-2.16386e-21
-6.44763e-24
-1.91632e-20
-5.08449e-23
-1.4872e-19
-3.43075e-22
-1.12802e-18
-2.00814e-21
-2.66979e-17
-1.05284e-20
-1.07295e-16
-3.58481e-20
-4.83543e-17
1.02715e-19
-2.08905e-18
6.76395e-19
-2.03827e-20
6.44116e-20
-1.16181e-22
8.12561e-22
5.7343e-24
-1.7344e-24
-4.18487e-40
-1.85058e-43
-5.31599e-38
-2.44781e-41
-3.2751e-36
-1.57037e-39
-1.34131e-34
-6.6935e-38
-4.1125e-33
-2.1362e-36
-1.0039e-31
-5.43154e-35
-2.02748e-30
-1.14386e-33
-3.4764e-29
-2.04884e-32
-5.15389e-28
-3.18059e-31
-6.68133e-27
-4.33104e-30
-7.64243e-26
-5.22628e-29
-7.73081e-25
-5.5732e-28
-7.57905e-24
-5.23973e-27
-7.25219e-23
-4.51714e-26
-6.41924e-22
-3.51607e-25
-5.72679e-21
-2.40037e-24
-1.66718e-19
-1.40407e-23
-7.62388e-19
-6.00393e-23
-6.90867e-19
5.93174e-23
-6.07699e-20
6.13844e-21
-7.69295e-22
1.3668e-21
-5.17928e-24
2.39868e-23
2.08758e-25
-8.75454e-26
-1.84507e-43
-1.34666e-46
-2.4583e-41
-1.88129e-44
-1.58309e-39
-1.27114e-42
-6.78793e-38
-5.72001e-41
-2.17969e-36
-1.9287e-39
-5.57645e-35
-5.18579e-38
-1.18206e-33
-1.15686e-36
-2.13171e-32
-2.19974e-35
-3.33272e-31
-3.63505e-34
-4.57395e-30
-5.29007e-33
-5.57837e-29
-6.87281e-32
-6.01796e-28
-7.88427e-31
-6.50608e-27
-8.18184e-30
-6.90143e-26
-7.90018e-29
-6.73067e-25
-6.87768e-28
-6.23523e-24
-5.35705e-27
-5.70383e-23
-3.6666e-26
-1.38561e-21
-2.12653e-25
-7.12432e-21
-7.71251e-25
-1.28499e-21
2.62667e-23
-2.27095e-23
1.7555e-23
-1.8727e-25
5.17201e-25
5.86262e-27
-3.6818e-27
-1.3229e-46
-4.60498e-50
-1.80668e-44
-6.63945e-48
-1.23326e-42
-4.78938e-46
-5.60373e-41
-2.30155e-44
-1.90572e-39
-8.28514e-43
-5.16936e-38
-2.38175e-41
-1.1636e-36
-5.69105e-40
-2.23309e-35
-1.16168e-38
-3.72489e-34
-2.06641e-37
-5.47609e-33
-3.25031e-36
-7.20392e-32
-4.59467e-35
-8.46559e-31
-5.80122e-34
-1.02124e-29
-6.77229e-33
-1.18418e-28
-7.23563e-32
-1.27546e-27
-7.05341e-31
-1.28336e-26
-6.25487e-30
-1.27822e-25
-5.00924e-29
-6.23641e-24
-3.6556e-28
-4.28469e-23
-2.22313e-27
-1.71398e-23
6.23463e-27
-4.85124e-25
9.59275e-26
-5.17008e-27
8.36327e-27
1.25577e-28
-1.22858e-28
-4.55214e-50
-4.16674e-54
-6.65754e-48
-6.48316e-52
-4.83809e-46
-5.01523e-50
-2.34198e-44
-2.58714e-48
-8.49347e-43
-1.00092e-46
-2.46028e-41
-3.0973e-45
-5.92508e-40
-7.982e-44
-1.21926e-38
-1.76129e-42
-2.18641e-37
-3.39561e-41
-3.46834e-36
-5.80941e-40
-4.93309e-35
-8.94608e-39
-6.32313e-34
-1.24245e-37
-8.25803e-33
-1.59464e-36
-1.05094e-31
-1.89139e-35
-1.25011e-30
-2.06674e-34
-1.39687e-29
-2.08171e-33
-1.57945e-28
-1.91698e-32
-7.48418e-27
-1.57317e-31
-5.77758e-26
-1.07725e-30
-9.8964e-26
-4.53114e-30
-7.86086e-27
3.9658e-28
-1.14486e-28
8.58029e-29
1.96771e-30
-3.39635e-30
-4.15864e-54
-9.54557e-58
-6.51758e-52
-1.60463e-55
-5.07597e-50
-1.34079e-53
-2.63613e-48
-7.47686e-52
-1.02681e-46
-3.13065e-50
-3.1993e-45
-1.04995e-48
-8.30283e-44
-2.93758e-47
-1.84519e-42
-7.05227e-46
-3.58374e-41
-1.48319e-44
-6.17784e-40
-2.77658e-43
-9.57824e-39
-4.69172e-42
-1.34474e-37
-7.19018e-41
-1.88183e-36
-1.0196e-39
-2.63693e-35
-1.34688e-38
-3.48006e-34
-1.65112e-37
-4.37036e-33
-1.88364e-36
-5.24843e-32
-1.99229e-35
-6.19884e-31
-1.92725e-34
-4.86165e-29
-1.67559e-33
-4.72283e-28
-1.57275e-32
-8.30658e-29
2.06188e-31
-1.84742e-30
4.76801e-31
2.29923e-32
-7.2394e-32
-9.53882e-58
-1.58751e-62
-1.61343e-55
-2.90443e-60
-1.35623e-53
-2.64069e-58
-7.60788e-52
-1.60329e-56
-3.20488e-50
-7.31722e-55
-1.08141e-48
-2.67797e-53
-3.04422e-47
-8.18867e-52
-7.35344e-46
-2.15263e-50
-1.55613e-44
-4.96851e-49
-2.93124e-43
-1.02345e-47
-4.9824e-42
-1.90824e-46
-7.69534e-41
-3.24187e-45
-1.15473e-39
-5.09481e-44
-1.78809e-38
-7.5153e-43
-2.6172e-37
-1.03484e-41
-3.65754e-36
-1.33616e-40
-4.90039e-35
-1.61661e-39
-6.49605e-34
-1.81555e-38
-6.23931e-32
-1.835e-37
-6.84015e-31
-1.55109e-36
-4.80216e-31
-6.11087e-36
-2.23953e-32
1.15745e-33
1.88985e-34
-1.2335e-33
-1.5872e-62
-2.38287e-66
-2.91999e-60
-4.78285e-64
-2.66976e-58
-4.76884e-62
-1.63006e-56
-3.1769e-60
-7.48135e-55
-1.59184e-58
-2.75353e-53
-6.40228e-57
-8.46749e-52
-2.15419e-55
-2.23859e-50
-6.24139e-54
-5.19641e-49
-1.59074e-52
-1.07655e-47
-3.62647e-51
-2.01803e-46
-7.50014e-50
-3.45315e-45
-1.42027e-48
-5.49161e-44
-2.49182e-47
-9.42577e-43
-4.10493e-46
-1.53379e-41
-6.36335e-45
-2.39215e-40
-9.29887e-44
-3.61306e-39
-1.28301e-42
-5.32469e-38
-1.66336e-41
-7.59714e-37
-1.99007e-40
-9.55746e-35
-2.09532e-39
-1.32609e-33
-2.6865e-38
-1.94198e-34
6.94052e-37
8.42591e-37
-1.66004e-35
-2.38192e-66
-1.70267e-71
-4.80428e-64
-3.7791e-69
-4.81456e-62
-4.16585e-67
-3.2235e-60
-3.0686e-65
-1.62331e-58
-1.70074e-63
-6.56152e-57
-7.5721e-62
-2.21877e-55
-2.82342e-60
-6.4603e-54
-9.07722e-59
-1.65461e-52
-2.57127e-57
-3.79042e-51
-6.5275e-56
-7.87481e-50
-1.50625e-54
-1.49922e-48
-3.19323e-53
-2.6485e-47
-6.28445e-52
-4.82978e-46
-1.15987e-50
-8.76574e-45
-2.02967e-49
-1.52738e-43
-3.3619e-48
-2.58073e-42
-5.28813e-47
-4.25791e-41
-7.88498e-46
-6.82871e-40
-1.10227e-44
-1.05274e-37
-1.39624e-43
-1.65663e-36
-1.4956e-42
-9.66672e-37
-6.95922e-42
1.09914e-39
-1.64164e-37
-1.7034e-71
-1.87579e-75
-3.79809e-69
-4.6434e-73
-4.2063e-67
-5.70677e-71
-3.11275e-65
-4.68588e-69
-1.73321e-63
-2.89584e-67
-7.75241e-62
-1.43844e-65
-2.90402e-60
-5.98887e-64
-9.37934e-59
-2.15215e-62
-2.66905e-57
-6.82336e-61
-6.80664e-56
-1.94182e-59
-1.57761e-54
-5.03143e-58
-3.36015e-53
-1.20057e-56
-6.64351e-52
-2.66401e-55
-1.27031e-50
-5.54972e-54
-2.58104e-49
-1.09801e-52
-5.04129e-48
-2.06813e-51
-9.55997e-47
-3.71452e-50
-1.77695e-45
-6.36439e-49
-3.26532e-44
-1.03374e-47
-5.82821e-43
-1.55886e-46
-1.16759e-40
-2.05301e-45
-2.15712e-39
-2.94018e-44
2.92279e-43
-1.11599e-39
-1.87547e-75
-2.42643e-80
-4.66142e-73
-6.76241e-78
-5.75258e-71
-9.34994e-76
-4.74284e-69
-8.63522e-74
-2.94299e-67
-6.00349e-72
-1.46778e-65
-3.35604e-70
-6.13551e-64
-1.57343e-68
-2.21356e-62
-6.37271e-67
-7.04533e-61
-2.2797e-65
-2.01261e-59
-7.3294e-64
-5.23319e-58
-2.14819e-62
-1.25336e-56
-5.80934e-61
-2.79065e-55
-1.4633e-59
-5.8436e-54
-3.46678e-58
-1.27971e-52
-7.78202e-57
-2.81489e-51
-1.67479e-55
-6.01486e-50
-3.44742e-54
-1.26005e-48
-6.80127e-53
-2.60919e-47
-1.2819e-51
-5.27037e-46
-2.27809e-50
-1.03413e-43
-3.67316e-49
-2.0403e-42
-4.75347e-48
-2.68107e-47
-3.5689e-42
-2.42771e-80
-2.28126e-84
-6.79072e-78
-7.23246e-82
-9.42423e-76
-1.13663e-79
-8.73627e-74
-1.19302e-77
-6.09635e-72
-9.42674e-76
-3.4206e-70
-5.99046e-74
-1.60963e-68
-3.19425e-72
-6.54326e-67
-1.47245e-70
-2.34925e-65
-6.00022e-69
-7.5804e-64
-2.19968e-67
-2.22973e-62
-7.35946e-66
-6.05165e-61
-2.2748e-64
-1.52993e-59
-6.55879e-63
-3.6382e-58
-1.78153e-61
-8.24152e-57
-4.59053e-60
-2.05378e-55
-1.13194e-58
-4.97376e-54
-2.68766e-57
-1.18109e-52
-6.13617e-56
-2.77385e-51
-1.34587e-54
-6.48818e-50
-2.81234e-53
-1.49373e-48
-5.46146e-52
-4.93449e-46
-9.17749e-51
-1.74358e-49
-1.19708e-44
-2.28117e-84
-4.31767e-89
-7.2551e-82
-1.57615e-86
-1.14389e-79
-2.85114e-84
-1.20449e-77
-3.4438e-82
-9.54775e-76
-3.13134e-80
-6.08655e-74
-2.29028e-78
-3.25561e-72
-1.40615e-76
-1.50534e-70
-7.4675e-75
-6.15264e-69
-3.50801e-73
-2.26215e-67
-1.48371e-71
-7.58973e-66
-5.73211e-70
-2.3521e-64
-2.04782e-68
-6.80063e-63
-6.83388e-67
-1.85184e-61
-2.15075e-65
-4.78503e-60
-6.42908e-64
-1.23911e-58
-1.83889e-62
-3.42834e-57
-5.06854e-61
-9.30082e-56
-1.35073e-59
-2.49489e-54
-3.47168e-58
-6.66263e-53
-8.56253e-57
-1.75622e-51
-1.99276e-55
-7.21036e-49
-4.18048e-54
-6.96037e-53
-1.98786e-47
-4.31805e-89
-6.43428e-94
-1.58063e-86
-2.74766e-91
-2.86728e-84
-5.81311e-89
-3.47296e-82
-8.20967e-87
-3.1666e-80
-8.72782e-85
-2.32241e-78
-7.46494e-83
-1.42972e-76
-5.36108e-81
-7.61274e-75
-3.33151e-79
-3.58546e-73
-1.83224e-77
-1.52027e-71
-9.07804e-76
-5.88755e-70
-4.11146e-74
-2.10824e-68
-1.7233e-72
-7.05133e-67
-6.75326e-71
-2.22403e-65
-2.49821e-69
-6.66231e-64
-8.78735e-68
-1.91084e-62
-2.96072e-66
-5.65348e-61
-9.60697e-65
-1.77103e-59
-3.019e-63
-5.48432e-58
-9.20078e-62
-1.69085e-56
-2.70427e-60
-5.21258e-55
-7.57687e-59
-1.68589e-53
-1.96175e-57
-3.99707e-56
-2.69074e-51
-6.43467e-94
-1.707e-98
-2.75435e-91
-8.71366e-96
-5.84142e-89
-2.20258e-93
-8.26958e-87
-3.71565e-91
-8.81269e-85
-4.71842e-89
-7.55555e-83
-4.82101e-87
-5.439e-81
-4.13663e-85
-3.38784e-79
-3.07204e-83
-1.86752e-77
-2.0199e-81
-9.27391e-76
-1.19709e-79
-4.20964e-74
-6.48903e-78
-1.76822e-72
-3.25706e-76
-6.94597e-71
-1.52994e-74
-2.57538e-69
-6.7879e-73
-9.08106e-68
-2.86609e-71
-3.06799e-66
-1.16046e-69
-9.99179e-65
-4.5289e-68
-3.38123e-63
-1.71151e-66
-1.22658e-61
-6.28325e-65
-4.42885e-60
-2.23866e-63
-2.2668e-58
-7.65609e-62
-6.02711e-57
-2.47135e-60
-6.55333e-59
-4.42384e-54
-1.70706e-98
-1.25834e-103
-8.73114e-96
-7.91501e-101
-2.21145e-93
-2.46386e-98
-3.73805e-91
-5.11776e-96
-4.75627e-89