/*--------------------------------*- C++ -*----------------------------------*\
| =========                 |                                                 |
| \\      /  F ield         | OpenFOAM: The Open Source CFD Toolbox           |
|  \\    /   O peration     | Version:  2206                                  |
|   \\  /    A nd           | Website:  www.openfoam.com                      |
|    \\/     M anipulation  |                                                 |
\*---------------------------------------------------------------------------*/
FoamFile
{
    version     2.0;
    format      ascii;
    arch        "LSB;label=32;scalar=64";
    class       volScalarField;
    location    "0.05";
    object      alpha.water;
}
// * * * * * * * * * * * * * * * * * * * * * * * * * * * * * * * * * * * * * //

dimensions      [0 0 0 0 0 0 0];

internalField   nonuniform List<scalar> 
2268
(
1
1
1
1
1
1
1
1
1
1
1
1
1
1
1
0.997739
0.905832
0.521107
0.0329319
0.0146743
0.00553757
0.0012262
0.000459982
1
1
1
1
1
1
1
1
1
1
1
1
1
1
1
0.973387
0.486635
0.0461811
0.00720872
0.0043139
0.00337794
0.000981656
0.000188253
1
1
1
1
1
1
1
1
1
1
1
1
1
1
1
0.855987
0.151676
0.00720553
0.00192021
0.000684818
0.000391693
0.000312162
4.00003e-05
1
1
1
1
1
1
1
1
1
1
1
1
1
1
1
0.721361
0.0605797
0.0019045
0.000506212
0.000169732
9.71279e-05
2.81546e-05
7.2057e-06
1
1
1
1
1
1
1
1
1
1
1
1
1
1
1
0.594645
0.0216414
0.000493865
0.000141341
4.30231e-05
2.43073e-05
7.19773e-06
1.85295e-06
1
1
1
1
1
1
1
1
1
1
1
1
1
1
1
0.483766
0.00681317
0.000134842
4.28525e-05
1.17292e-05
6.18551e-06
1.84976e-06
5.2822e-07
1
1
1
1
1
1
1
1
1
1
1
1
1
1
1
0.392394
0.0011866
4.54229e-05
1.16366e-05
3.99248e-06
1.67993e-06
5.27585e-07
2.10141e-07
1
1
1
1
1
1
1
1
1
1
1
1
1
1
1
0.315889
0.000393265
0.000100891
3.97089e-06
1.80538e-06
6.50467e-07
2.09763e-07
1.04315e-07
1.55802e-27
7.9237e-29
7.32585e-31
6.77712e-33
5.14535e-35
3.9928e-37
3.43786e-39
3.48908e-41
6.34999e-43
6.56859e-45
5.67695e-47
4.44245e-49
3.05677e-51
1.79309e-53
8.62024e-56
3.20953e-58
8.4433e-61
1.31596e-63
6.6411e-64
1.15779e-25
3.73313e-26
4.01367e-28
7.32585e-31
6.77712e-33
5.14535e-35
3.9928e-37
3.43786e-39
4.11406e-40
4.63779e-42
3.58882e-44
2.7483e-46
1.83733e-48
1.03437e-50
4.66915e-53
1.56261e-55
3.31413e-58
2.61535e-61
6.61998e-64
3.75405e-23
9.35428e-24
1.13922e-25
3.48346e-28
3.63661e-30
3.01565e-32
2.44147e-34
2.19588e-36
1.69915e-37
1.84283e-39
1.48169e-41
1.12785e-43
7.40426e-46
4.01943e-48
1.69115e-50
4.8299e-53
9.31297e-56
1.31745e-58
2.57725e-61
6.90849e-21
1.53985e-21
2.05804e-23
8.20292e-26
9.89191e-28
9.34734e-30
8.29139e-32
8.29086e-34
5.45557e-35
5.84658e-37
4.79705e-39
3.64804e-41
2.34594e-43
1.20738e-45
4.44007e-48
1.29419e-50
4.57942e-53
5.53813e-56
1.29255e-58
8.45779e-19
1.82251e-19
2.66877e-21
1.2295e-23
1.74867e-25
1.94595e-27
1.97062e-29
1.13024e-30
1.46042e-32
1.40044e-34
1.23626e-36
9.37151e-39
5.82137e-41
2.6983e-43
1.07086e-45
5.17113e-48
1.56613e-50
1.50103e-53
5.43155e-56
6.90581e-17
1.57226e-17
2.54027e-19
1.28217e-21
2.18922e-23
2.93788e-25
3.57231e-27
2.0998e-28
2.73429e-30
2.69997e-32
2.41734e-34
1.80322e-36
1.04035e-38
5.52887e-41
3.42338e-43
1.63712e-45
4.07665e-48
4.23959e-51
1.94284e-53
1.06759e-14
1.82436e-15
2.10355e-17
2.82905e-19
5.04854e-21
9.6082e-23
1.93176e-24
2.75124e-26
3.38654e-28
3.61107e-30
3.23356e-32
2.2971e-34
1.72488e-36
1.32638e-38
7.58451e-41
2.93019e-43
7.50804e-46
9.18413e-49
5.24279e-51
1.84934e-12
1.53735e-13
2.50476e-15
3.7933e-17
3.77231e-19
6.84554e-21
1.19759e-22
1.79298e-24
2.29387e-26
2.46327e-28
2.47713e-30
2.38578e-32
1.93473e-34
1.28589e-36
6.74853e-39
2.63073e-41
6.79061e-44
8.81396e-47
9.65791e-49
1
1
1
1
1
1
1
1
1
1
1
1
1
1
1
0.262867
4.76674e-05
1.99277e-05
2.02974e-06
7.53921e-07
3.12664e-07
1.04084e-07
3.59634e-08
1
1
1
1
1
1
1
1
1
1
1
1
1
1
1
0.234335
2.84655e-05
5.44888e-06
1.56273e-06
3.45019e-07
1.43597e-07
6.02186e-08
1.72869e-08
1
1
1
1
1
1
1
1
1
1
1
1
1
1
1
0.206453
0.000177011
1.04703e-05
1.57266e-06
2.75705e-07
7.54415e-08
2.60694e-08
8.58573e-09
1
1
1
1
1
1
1
1
1
1
1
1
1
1
1
0.180923
0.000249297
1.72344e-05
2.04735e-06
2.93034e-07
5.74691e-08
1.44522e-08
3.65818e-09
1
1
1
1
1
1
1
1
1
1
1
1
1
1
1
0.15796
0.000237866
1.9618e-05
2.15545e-06
2.89619e-07
4.78427e-08
9.40617e-09
1.89912e-09
1
1
0.999999
0.999999
1
1
1
1
1
0.999999
0.999999
1
1
0.999999
0.999999
0.137395
0.000189239
1.67623e-05
1.79192e-06
2.31117e-07
3.4649e-08
5.85835e-09
9.99659e-10
0.999999
0.999999
0.999999
0.999998
0.999999
0.999999
0.999999
0.999998
0.999998
0.999998
0.999998
0.999998
0.999997
0.999997
0.999994
0.119011
0.000137858
1.05379e-05
1.20947e-06
1.51102e-07
2.1207e-08
3.22191e-09
5.08643e-10
0.999994
0.999994
0.999994
0.999993
0.999993
0.999993
0.999993
0.999992
0.999991
0.99999
0.999989
0.999988
0.999987
0.999985
0.999975
0.102342
9.64486e-05
7.68905e-06
7.78944e-07
9.04114e-08
1.14904e-08
1.57304e-09
2.36639e-10
0.999969
0.999968
0.999967
0.999966
0.999965
0.999964
0.999962
0.999959
0.999956
0.999953
0.999949
0.999945
0.999938
0.99993
0.999882
0.0872951
7.6992e-05
5.95803e-06
4.69506e-07
5.17251e-08
6.12119e-09
7.54672e-10
9.88578e-11
0.999836
0.999833
0.999831
0.999827
0.999822
0.999815
0.999806
0.999796
0.999784
0.99977
0.999754
0.999736
0.999706
0.999676
0.999457
0.0740948
6.64976e-05
4.93177e-06
3.85361e-07
2.41645e-08
2.49348e-09
3.68062e-10
4.1903e-11
0.999158
0.999147
0.999138
0.99912
0.999097
0.999068
0.999032
0.998989
0.99894
0.998883
0.998817
0.998749
0.998621
0.998499
0.997502
0.0722515
2.40163e-05
2.55594e-06
2.18424e-07
2.03416e-08
1.10759e-09
9.34422e-11
1.68309e-11
0.995722
0.995683
0.995641
0.99557
0.995475
0.995355
0.995211
0.99504
0.994843
0.994619
0.994363
0.994096
0.993567
0.993091
0.984556
0.171251
2.60918e-05
2.71418e-06
2.46887e-07
1.68339e-08
1.10279e-09
3.28406e-11
5.22487e-12
0.866969
0.866174
0.864851
0.862926
0.860312
0.857034
0.853082
0.848435
0.843057
0.836812
0.829534
0.822278
0.801167
0.784874
0.596179
0.223893
0.00118832
2.61099e-05
2.8488e-06
2.56703e-07
1.74781e-08
4.41546e-10
8.51357e-12
0.184987
0.184199
0.182691
0.180625
0.177843
0.174415
0.170369
0.165726
0.160494
0.154559
0.147884
0.141571
0.121721
0.110641
0.00992931
0.0350187
0.0289181
0.00189497
4.35939e-05
1.39317e-06
1.27691e-08
7.58785e-11
8.64546e-11
8.43427e-23
1.87739e-22
1.17793e-20
6.19642e-19
2.15836e-17
5.58851e-16
1.14174e-14
1.90949e-13
2.67857e-12
3.20523e-11
3.31447e-10
2.98894e-09
2.36172e-08
1.685e-07
1.06029e-06
6.37871e-06
0.00570907
0.00255079
0.000169242
4.68448e-06
3.67149e-11
4.98667e-12
1.20145e-11
1.47417e-23
8.43427e-23
7.28964e-21
4.06734e-19
1.52905e-17
4.32824e-16
9.79827e-15
1.84263e-13
2.95536e-12
4.12175e-11
5.07044e-10
5.47622e-09
5.24222e-08
4.24263e-07
2.19629e-06
6.56842e-05
0.00021541
0.000688494
8.86577e-05
1.60513e-06
-3.18222e-10
-2.82985e-11
-8.27683e-15
8.11478e-25
1.47417e-23
1.5261e-21
8.49761e-20
3.18041e-18
8.85547e-17
1.95892e-15
3.05575e-14
4.03629e-13
4.62325e-12
4.61008e-11
3.99638e-10
2.98694e-09
1.90858e-08
1.00883e-07
1.11998e-05
2.05249e-05
3.96127e-06
6.72565e-07
9.58836e-09
-4.33682e-10
-5.09252e-12
-5.99076e-14
1.70284e-26
8.07764e-25
8.72978e-23
3.66268e-21
9.78334e-20
2.06079e-18
3.54915e-17
5.0992e-16
6.17326e-15
6.04353e-14
4.10116e-13
1.53171e-12
-4.94713e-12
-1.66569e-10
-1.96534e-09
4.39558e-07
1.02674e-06
1.64276e-07
8.89809e-08
1.31581e-09
-4.9321e-11
-1.33566e-12
-1.89539e-15
1.1942e-28
6.49159e-27
-1.24534e-24
-7.17209e-23
-2.62349e-21
-7.04147e-20
-1.48535e-18
-2.57519e-17
-3.91592e-16
-5.09761e-15
-6.52395e-14
-9.76845e-13
-1.01691e-11
-7.52296e-11
-4.50276e-10
9.79529e-09
2.52189e-08
3.66466e-09
5.61416e-09
1.26656e-10
-6.39833e-12
-1.69495e-13
1.84384e-17
-8.94479e-30
-3.54534e-27
-1.75984e-25
-6.02484e-24
-1.56328e-22
-3.23627e-21
-5.51035e-20
-8.22256e-19
-1.04161e-17
-1.11778e-16
-1.1366e-15
-1.3515e-14
-1.67677e-13
-1.26092e-12
-1.58634e-12
1.13377e-11
7.57039e-12
5.10744e-11
1.62715e-10
9.04891e-12
-9.10127e-13
-7.79133e-15
7.34712e-18
-4.23168e-32
9.92397e-32
7.2942e-30
1.51979e-28
2.1397e-27
3.65216e-26
1.57347e-24
4.2315e-23
7.29887e-22
-1.1206e-20
-6.36181e-19
-7.07374e-18
-5.36835e-17
-5.86421e-16
-9.52827e-15
6.52951e-15
1.77498e-12
1.99929e-11
2.59259e-12
5.38302e-13
-4.23041e-15
4.005e-17
1.96272e-19
-3.25484e-35
8.06366e-35
-6.27678e-33
-1.03121e-30
-4.47128e-29
-8.93801e-28
-1.67762e-26
-6.88471e-26
1.37219e-24
3.40582e-23
-7.15897e-23
-7.49175e-21
5.61843e-19
1.56244e-17
2.01766e-16
2.86842e-15
1.39987e-13
5.35221e-13
2.22908e-14
1.96446e-14
3.66922e-16
2.38672e-18
3.82319e-20
-2.97542e-38
-1.01973e-36
-1.2802e-34
-5.30732e-33
-1.40659e-31
-2.99671e-30
-5.39748e-29
-8.44244e-28
-1.19749e-26
-1.64383e-25
-2.69872e-24
-7.15869e-23
2.22606e-21
7.95262e-20
1.26613e-18
1.71064e-17
9.15296e-16
3.91396e-15
1.71396e-16
2.50439e-16
1.52394e-17
1.152e-19
2.01108e-21
-2.08391e-42
-3.02306e-40
-5.08118e-38
-2.78235e-36
-1.0752e-34
-3.25429e-33
-7.89989e-32
-1.6044e-30
-2.79845e-29
-4.18289e-28
-4.90189e-27
-5.35368e-26
3.86693e-24
9.75342e-23
1.44296e-21
1.86779e-20
2.73257e-19
7.81709e-18
3.32449e-17
1.67627e-18
4.34612e-19
4.44881e-21
9.01829e-23
-1.07932e-44
-4.03958e-42
-2.57342e-40
-1.10271e-38
-3.63922e-37
-9.54617e-36
-2.07643e-34
-3.84185e-33
-6.18969e-32
-8.65978e-31
-1.00737e-29
-6.00416e-29
5.98417e-27
1.47287e-25
2.38688e-24
3.19321e-23
4.05893e-22
3.19391e-20
2.06874e-19
3.40385e-21
4.40731e-21
1.3529e-22
3.21718e-24
-2.43001e-48
-1.24192e-46
-8.06542e-45
-3.5823e-43
-1.16138e-41
-2.85965e-40
-5.29862e-39
-7.21426e-38
-7.88681e-37
-1.29103e-36
-3.88082e-34
1.48349e-32
4.31829e-30
1.23784e-28
2.24536e-27
3.34667e-26
4.88409e-25
3.97298e-23
2.97343e-22
2.19484e-22
2.38957e-23
2.49329e-24
5.83826e-26
-3.29836e-53
-2.57284e-51
-1.42957e-49
-4.68952e-48
-7.3548e-47
1.78109e-45
1.81755e-43
7.49075e-42
2.41209e-40
6.08046e-39
9.07941e-38
3.46617e-36
7.41225e-34
2.69045e-32
5.57e-31
9.45853e-30
1.42216e-28
2.02669e-27
2.37561e-25
2.19173e-24
3.87108e-26
1.96925e-26
7.89905e-28
-3.04983e-57
-3.29193e-55
-3.11725e-53
-2.06366e-51
-8.25335e-50
-2.5842e-48
-6.60835e-47
-1.41608e-45
-2.5671e-44
-3.94094e-43
-1.05705e-41
3.50409e-40
2.82345e-37
1.56996e-35
3.81132e-34
7.36817e-33
1.2494e-31
2.01656e-30
3.04557e-28
3.17493e-27
1.13026e-29
8.53225e-29
7.62949e-30
-3.17375e-63
7.65448e-61
1.63092e-58
1.81726e-56
1.25759e-54
6.42736e-53
2.60613e-51
8.85637e-50
2.61561e-48
6.92291e-47
1.34593e-45
5.05621e-44
2.55167e-42
6.35169e-40
1.8874e-38
4.21383e-37
8.21696e-36
1.4752e-34
2.45654e-33
4.40831e-31
5.82397e-30
1.18753e-31
4.89418e-32
-4.30722e-66
-1.08215e-63
-1.05407e-61
-6.96719e-60
-3.46012e-58
-1.38812e-56
-4.65114e-55
-1.32733e-53
-3.25019e-52
-6.68594e-51
-1.94573e-49
1.07747e-48
3.16238e-46
2.14099e-43
8.93603e-42
2.37697e-40
5.3481e-39
1.0939e-37
2.07101e-36
4.84155e-34
7.24507e-33
1.83854e-35
1.80678e-34
4.22387e-71
1.1129e-68
1.39736e-66
1.1777e-64
7.51425e-63
3.87648e-61
1.68725e-59
6.38545e-58
2.14848e-56
6.52478e-55
1.74871e-53
4.77069e-52
1.18472e-50
2.05483e-48
1.96104e-46
6.56249e-45
1.73946e-43
4.12275e-42
9.17037e-41
1.8972e-39
5.30538e-37
9.41743e-36
2.66542e-37
-1.3878e-75
-3.08655e-73
-3.27669e-71
-2.18827e-69
-9.79057e-68
-2.58967e-66
9.26231e-66
5.5877e-63
3.88155e-61
1.8765e-59
3.24516e-58
2.40738e-56
6.68483e-55
6.98285e-53
5.68457e-50
2.85322e-48
9.31086e-47
2.59957e-45
6.69007e-44
1.59352e-42
4.66974e-40
8.84991e-39
8.37562e-39
6.93547e-80
2.18573e-77
3.45847e-75
3.67719e-73
2.96124e-71
1.92984e-69
1.06222e-67
5.0896e-66
2.17188e-64
8.40553e-63
2.97836e-61
9.94393e-60
3.11273e-58
9.30183e-57
4.62121e-55
1.3707e-52
6.09529e-51
2.08113e-49
6.33542e-48
1.81359e-46
4.89603e-45
2.2478e-42
5.28605e-41
-2.30531e-85
-8.55229e-84
1.1936e-80
2.9674e-78
4.02049e-76
3.87835e-74
2.95029e-72
1.87207e-70
1.02775e-68
5.01195e-67
2.13211e-65
7.39533e-64
3.36608e-62
1.15889e-60
4.5824e-59
2.73991e-56
2.84212e-54
1.30009e-52
4.86564e-51
1.65936e-49
5.27067e-48
3.27533e-45
8.76095e-44
2.03364e-89
8.57916e-87
1.82187e-84
2.60408e-82
2.82423e-80
2.48342e-78
1.84763e-76
1.19851e-74
6.93358e-73
3.64233e-71
1.76185e-69
7.89379e-68
3.35795e-66
1.38755e-64
5.38607e-63
2.58972e-61
1.81799e-58
1.67646e-56
8.45834e-55
3.5935e-53
1.40617e-51
5.60582e-50
1.20103e-47
2.61179e-94
1.55821e-91
4.53462e-89
8.6163e-87
1.21438e-84
1.3635e-82
1.27741e-80
1.03193e-78
7.3694e-77
4.74537e-75
2.8007e-73
1.44552e-71
8.01664e-70
3.86261e-68
1.7959e-66
8.10665e-65
3.79877e-63
1.21515e-60
1.25796e-58
7.38415e-57
6.74679e-55
1.76876e-53
2.01688e-50
3.50027e-99
2.23727e-96
7.18512e-94
1.54821e-91
2.52319e-89
3.3239e-87
3.6942e-85
3.57075e-83
3.07162e-81
2.395e-79
1.71828e-77
1.14968e-75
7.10869e-74
4.34635e-72
2.49629e-70
1.40341e-68
7.6529e-67
4.37586e-65
2.24785e-62
3.18311e-60
4.76256e-58
1.4813e-56
1.11331e-54
-4.99757e-104
-3.25823e-101
-1.03523e-98
-2.15762e-96
-3.30238e-94
-3.91648e-92
-3.66418e-90
-2.62977e-88
-1.21373e-86
1.28734e-85
1.09586e-82
1.59993e-80
1.48678e-78
9.35075e-77
1.27577e-74
9.25059e-73
6.5126e-71
4.52969e-69
3.1796e-67
1.89519e-64
1.28943e-61
5.6599e-60
7.85913e-60
-1.29135e-110
-1.06438e-107
-4.17732e-105
-1.03124e-102
-1.71195e-100
-1.71668e-98
5.74613e-98
4.5837e-94
1.21706e-91
2.22263e-89
3.34398e-87
4.42937e-85
5.34557e-83
5.44312e-81
6.50566e-79
6.52046e-77
6.45282e-75
6.27347e-73
6.0724e-71
5.89213e-69
2.00201e-66
7.60633e-64
5.84145e-63
-6.07638e-117
-7.72075e-114
-4.81703e-111
-1.99248e-108
-6.15856e-106
-1.5175e-103
-3.09922e-101
-5.36895e-99
-7.96381e-97
-1.00171e-94
-1.01165e-92
-6.32737e-91
3.80323e-89
2.3396e-86
3.41128e-84
1.13039e-81
1.83464e-79
3.02129e-77
4.82289e-75
7.72946e-73
1.25202e-70
2.06311e-68
3.47351e-66
-1.18771e-124
-2.57249e-121
-2.68432e-118
-1.85246e-115
-9.57476e-113
-3.96708e-110
-1.37543e-107
-4.11074e-105
-1.0821e-102
-2.5491e-100
-5.43582e-98
-1.05708e-95
-1.8771e-93
-3.02395e-91
-4.29936e-89
-1.42939e-86
-1.54503e-86
3.02303e-84
5.82824e-81
2.76134e-78
1.3244e-75
2.23257e-73
3.12177e-70
-7.52378e-140
-1.17743e-135
-3.87726e-132
-9.31465e-129
-1.58807e-125
-1.97361e-122
-2.08181e-119
-1.89527e-116
-1.52117e-113
-1.09706e-110
-7.19477e-108
-4.33421e-105
-2.41296e-102
-1.24295e-99
-5.88247e-97
-2.4949e-94
-2.38916e-91
-1.49848e-90
-8.57278e-88
-8.17399e-87
-2.55354e-84
-6.21276e-77
-2.80943e-75
5.56118e-09
1.04337e-09
2.0435e-10
3.29147e-11
4.61733e-09
1.0693e-09
2.43036e-10
4.94586e-11
2.38751e-09
5.47954e-10
1.49989e-10
3.55637e-11
9.92414e-10
2.28376e-10
7.0949e-11
1.53546e-11
4.60749e-10
9.87898e-11
3.10311e-11
5.86531e-12
2.15055e-10
5.2213e-11
1.33762e-11
2.03088e-12
9.91104e-11
2.65092e-11
5.25721e-12
6.61649e-13
5.138e-11
1.17056e-11
1.78354e-12
2.00761e-13
2.63661e-11
4.45068e-12
5.39528e-13
5.59415e-14
1.18172e-11
1.51103e-12
1.51962e-13
1.42888e-14
5.11609e-12
4.97599e-13
4.01788e-14
3.33991e-15
1.35855e-12
1.1574e-13
9.22698e-15
6.87532e-16
2.44667e-13
2.41865e-14
2.03026e-15
1.22247e-16
1.91416e-12
2.75733e-14
5.3997e-16
2.00507e-17
3.73619e-13
5.88481e-15
6.00681e-17
2.18425e-18
4.6784e-15
1.53305e-16
4.54665e-18
1.89731e-19
6.27371e-16
1.51836e-17
4.25958e-19
1.69842e-20
5.37007e-17
1.19863e-18
3.49709e-20
1.40648e-21
2.34813e-18
7.79091e-20
2.45801e-21
1.03253e-22
3.10451e-20
3.57215e-21
1.4305e-22
6.68326e-24
7.06666e-21
1.74255e-22
6.15645e-24
3.71632e-25
5.50441e-22
1.23056e-23
3.8652e-25
1.75813e-26
3.14863e-23
7.27893e-25
2.26838e-26
7.08464e-28
1.25815e-24
3.74611e-26
1.18762e-27
2.87221e-29
5.45226e-26
1.65195e-27
5.59441e-29
1.39083e-30
2.10992e-27
5.33135e-29
2.00178e-30
6.00042e-32
4.38619e-29
1.29125e-30
5.53063e-32
2.31681e-33
6.51534e-31
2.44737e-32
1.29219e-33
6.56283e-35
7.35432e-33
4.39866e-34
2.18789e-35
1.51827e-36
6.1346e-35
5.65984e-36
3.50212e-37
3.04682e-38
3.58253e-37
5.74139e-38
5.95605e-39
4.74417e-40
1.33451e-39
4.53938e-40
6.95303e-41
7.90352e-42
2.6298e-42
2.72331e-42
6.74319e-43
1.03707e-43
1.68005e-44
1.19589e-44
5.40431e-45
1.17631e-45
3.00873e-46
3.66406e-47
3.56581e-47
1.16178e-47
7.85285e-49
2.30954e-49
1.93655e-49
1.00655e-49
5.3899e-52
3.1751e-51
1.20937e-51
7.74397e-52
2.94531e-55
1.21182e-53
7.60413e-54
7.64847e-54
9.66822e-59
2.14022e-56
5.93334e-56
6.7752e-56
2.03503e-62
2.48026e-59
2.85756e-58
4.34162e-58
2.64514e-66
1.87404e-62
7.25746e-61
3.11027e-60
7.06143e-71
6.29742e-66
8.90907e-64
6.9115e-62
9.89805e-12
5.57972e-13
1.52191e-14
4.57046e-16
1.13119e-17
2.29603e-19
3.94968e-21
5.72141e-23
6.80514e-25
8.55856e-27
9.78023e-29
9.48439e-31
7.68781e-33
5.08874e-35
2.65245e-37
1.02489e-39
2.61895e-42
3.41581e-45
8.82487e-47
1.12741e-11
5.12249e-13
1.7954e-14
6.34152e-16
1.78796e-17
4.32336e-19
8.94589e-21
1.58903e-22
2.42539e-24
3.1739e-26
3.54591e-28
3.34685e-30
2.62422e-32
1.66726e-34
8.19787e-37
2.86928e-39
5.88037e-42
9.50169e-45
3.41597e-45
5.39606e-12
1.82251e-13
7.92634e-15
3.37318e-16
1.1273e-17
3.13601e-19
7.32535e-21
1.45187e-22
2.45687e-24
3.57372e-26
4.44623e-28
4.71023e-30
4.20994e-32
3.12661e-34
1.88419e-36
8.88105e-39
3.09259e-41
7.05119e-44
2.28536e-45
2.05783e-12
7.18687e-14
3.1658e-15
1.32367e-16
4.41127e-18
1.24153e-19
2.9631e-21
6.03381e-23
1.05259e-24
1.56682e-26
1.99699e-28
2.16889e-30
1.98907e-32
1.51768e-34
9.4157e-37
4.58094e-39
1.64511e-41
3.81889e-44
7.45202e-46
7.30439e-13
2.56497e-14
1.1626e-15
4.88568e-17
1.64018e-18
4.63639e-20
1.10957e-21
2.26224e-23
3.94528e-25
5.89437e-27
7.53471e-29
8.20266e-31
7.53797e-33
5.76356e-35
3.58476e-37
1.74994e-39
6.31391e-42
1.48491e-44
2.00188e-46
2.4391e-13
8.4366e-15
3.86353e-16
1.61217e-17
5.40799e-19
1.52693e-20
3.64952e-22
7.42857e-24
1.29282e-25
1.92661e-27
2.45557e-29
2.66472e-31
2.44077e-33
1.86043e-35
1.15402e-37
5.62206e-40
2.02631e-42
4.78638e-45
4.47941e-47
7.56047e-14
2.5421e-15
1.15559e-16
4.71748e-18
1.5616e-19
4.35872e-21
1.03137e-22
2.08036e-24
3.59001e-26
5.30719e-28
6.71242e-30
7.23054e-32
6.57665e-34
4.98041e-36
3.0712e-38
1.48856e-40
5.34276e-43
1.26172e-45
8.40985e-48
2.13903e-14
6.94374e-16
3.08739e-17
1.21854e-18
3.93856e-20
1.07681e-21
2.50235e-23
4.96693e-25
8.44742e-27
1.23226e-28
1.53945e-30
1.63945e-32
1.47552e-34
1.10661e-36
6.76389e-39
3.25242e-41
1.15933e-43
2.72697e-46
1.33448e-48
5.47528e-15
1.70569e-16
7.31865e-18
2.76496e-19
8.64678e-21
2.2973e-22
5.20697e-24
1.01101e-25
1.68596e-27
2.41622e-29
2.97052e-31
3.11768e-33
2.76898e-35
2.05178e-37
1.24047e-39
5.90639e-42
2.08711e-44
4.87833e-47
1.80439e-49
1.26449e-15
3.74882e-17
1.53209e-18
5.49103e-20
1.64823e-21
4.22683e-23
9.29105e-25
1.75623e-26
2.86025e-28
4.01398e-30
4.84324e-32
4.99861e-34
4.37322e-36
3.19697e-38
1.90948e-40
8.99355e-43
3.14762e-45
7.30161e-48
2.09762e-50
2.60017e-16
7.31084e-18
2.8131e-19
9.49025e-21
2.71695e-22
6.69156e-24
1.42071e-25
2.606e-27
4.1345e-29
5.67054e-31
6.70512e-33
6.79774e-35
5.85392e-37
4.21969e-39
2.48904e-41
1.15943e-43
4.01862e-46
9.24864e-49
2.11666e-51
4.57614e-17
1.23948e-18
4.46104e-20
1.41171e-21
3.84403e-23
9.07416e-25
1.85815e-26
3.30415e-28
5.10335e-30
6.83827e-32
7.92363e-34
7.89214e-36
6.69181e-38
4.75844e-40
2.77346e-42
1.27845e-44
4.39095e-47
1.003e-49
1.87256e-52
6.79972e-18
1.78233e-19
5.99591e-21
1.78544e-22
4.63262e-24
1.04984e-25
2.07644e-27
3.58428e-29
5.39655e-31
7.07395e-33
8.04276e-35
7.88059e-37
6.58781e-39
4.62707e-41
2.66819e-43
1.2186e-45
4.15222e-48
9.42266e-51
1.46717e-53
8.00159e-19
2.15847e-20
6.78731e-22
1.90966e-23
4.74341e-25
1.03633e-26
1.98708e-28
3.34026e-30
4.91627e-32
6.32039e-34
7.06756e-36
6.82728e-38
5.6382e-40
3.91897e-42
2.23978e-44
1.0152e-46
3.43695e-49
7.75855e-52
1.02837e-54
6.76656e-20
2.12024e-21
6.37488e-23
1.72124e-24
4.1308e-26
8.7608e-28
1.63736e-29
2.69241e-31
3.88868e-33
4.91964e-35
5.42683e-37
5.18231e-39
4.2383e-41
2.9219e-43
1.65851e-45
7.47448e-48
2.51851e-50
5.6637e-53
6.54578e-56
5.55953e-21
1.72322e-22
4.9701e-24
1.31202e-25
3.08061e-27
6.39215e-29
1.17163e-30
1.89405e-32
2.69596e-34
3.36897e-36
3.67821e-38
3.48255e-40
2.8281e-42
1.93845e-44
1.09514e-46
4.91703e-49
1.65183e-51
3.70596e-54
4.14948e-57
4.86423e-22
1.30836e-23
3.38821e-25
8.6186e-27
1.98447e-28
4.06516e-30
7.35514e-32
1.17479e-33
1.65512e-35
2.05083e-37
2.22368e-39
2.09374e-41
1.69286e-43
1.15643e-45
6.51694e-48
2.92067e-50
9.79904e-53
2.19653e-55
2.46229e-58
4.01057e-23
9.82827e-25
2.30005e-26
5.18115e-28
1.13722e-29
2.27561e-31
4.09166e-33
6.49195e-35
9.09194e-37
1.12131e-38
1.2115e-40
1.13775e-42
9.18307e-45
6.26686e-47
3.53014e-49
1.58212e-51
5.30978e-54
1.19083e-56
1.33614e-59
3.01443e-24
6.95068e-26
1.51539e-27
3.14685e-29
6.23396e-31
1.16116e-32
2.0347e-34
3.22418e-36
4.51389e-38
5.56189e-40
6.00744e-42
5.64309e-44
4.55826e-46
3.11457e-48
1.75717e-50
7.88884e-53
2.65236e-55
5.95904e-58
6.69329e-61
2.06511e-25
4.54791e-27
9.38474e-29
1.83899e-30
3.40558e-32
5.8663e-34
9.40866e-36
1.46395e-37
2.04287e-39
2.52592e-41
2.73676e-43
2.5783e-45
2.08927e-47
1.43235e-49
8.10835e-52
3.6523e-54
1.23182e-56
2.77553e-59
3.12324e-62
1.27976e-26
2.74493e-28
5.43928e-30
1.01578e-31
1.78973e-33
2.92237e-35
4.42499e-37
6.36934e-39
8.61926e-41
1.05898e-42
1.15523e-44
1.09452e-46
8.9176e-49
6.14644e-51
3.49699e-53
1.58264e-55
5.36091e-58
1.21258e-60
1.3678e-63
7.10091e-28
1.52032e-29
2.93955e-31
5.29974e-33
8.96417e-35
1.40278e-36
2.03659e-38
2.79824e-40
3.56818e-42
4.20557e-44
4.54888e-46
4.34847e-48
3.57239e-50
2.48017e-52
1.42032e-54
6.46665e-57
2.20221e-59
5.00443e-62
5.66096e-65
3.51226e-29
7.69532e-31
1.47602e-32
2.60349e-34
4.27437e-36
6.46573e-38
9.06072e-40
1.2033e-41
1.47991e-43
1.67217e-45
1.72005e-47
1.63795e-49
1.35207e-51
9.47783e-54
5.47043e-56
2.5086e-58
8.59617e-61
1.96387e-63
2.22826e-66
1.53365e-30
3.5486e-32
6.86789e-34
1.20133e-35
1.936e-37
2.85779e-39
3.89649e-41
5.02947e-43
6.01894e-45
6.61832e-47
6.62069e-49
6.05089e-51
4.92028e-53
3.4484e-55
2.00996e-57
9.29769e-60
3.20806e-62
7.37221e-65
8.3903e-68
5.98502e-32
1.48297e-33
2.95614e-35
5.19836e-37
8.31631e-39
1.20938e-40
1.61739e-42
2.04318e-44
2.39143e-46
2.57369e-48
2.52414e-50
2.25863e-52
1.78739e-54
1.22073e-56
7.12436e-59
3.30828e-61
1.15069e-63
2.66176e-66
3.03835e-69
2.11031e-33
5.61193e-35
1.17609e-36
2.10771e-38
3.38502e-40
4.89555e-42
6.47372e-44
8.05912e-46
9.28017e-48
9.82123e-50
9.47641e-52
8.35612e-54
6.51632e-56
4.38488e-58
2.50473e-60
1.14998e-62
4.00964e-65
9.29627e-68
1.06226e-70
6.54808e-35
1.93255e-36
4.32532e-38
8.00683e-40
1.30525e-41
1.89489e-43
2.49738e-45
3.08471e-47
3.51507e-49
3.67641e-51
3.50459e-53
3.05404e-55
2.35648e-57
1.57086e-59
8.88856e-62
4.03984e-64
1.39206e-66
3.2021e-69
3.64572e-72
1.79076e-36
6.06429e-38
1.47037e-39
2.85175e-41
4.76975e-43
7.01424e-45
9.2854e-47
1.14556e-48
1.29916e-50
1.34943e-52
1.27612e-54
1.10286e-56
8.44126e-59
5.58619e-61
3.14199e-63
1.4206e-65
4.87314e-68
1.11789e-70
1.26759e-73
5.88735e-38
1.75439e-39
4.6206e-41
9.53622e-43
1.65352e-44
2.48485e-46
3.32887e-48
4.12854e-50
4.68567e-52
4.85632e-54
4.57422e-56
3.93376e-58
2.99516e-60
1.97211e-62
1.1042e-64
4.97422e-67
1.70199e-69
3.89882e-72
4.4092e-75
1.56257e-39
4.62919e-41
1.35747e-42
3.00033e-44
5.44659e-46
8.43449e-48
1.15174e-49
1.44484e-51
1.64978e-53
1.71388e-55
1.61413e-57
1.38581e-59
1.05249e-61
6.91017e-64
3.85827e-66
1.73387e-68
5.92182e-71
1.35521e-73
1.52885e-76
3.32486e-41
1.13732e-42
3.71431e-44
8.90596e-46
1.70829e-47
2.74774e-49
3.85059e-51
4.91479e-53
5.67455e-55
5.9345e-57
5.60897e-59
4.82243e-61
3.6627e-63
2.40294e-65
1.34016e-67
6.01567e-70
2.05267e-72
4.69554e-75
5.28444e-78
6.18151e-43
2.7618e-44
9.53736e-46
2.50231e-47
5.11508e-49
8.60905e-51
1.24605e-52
1.62711e-54
1.90865e-56
2.01762e-58
1.92036e-60
1.65824e-62
1.26256e-64
8.2932e-67
4.62734e-69
2.07719e-71
7.08724e-74
1.62136e-76
1.8205e-79
1.02613e-44
5.74721e-46
2.3127e-47
6.67996e-49
1.46658e-50
2.60054e-52
3.91059e-54
5.25116e-56
6.2858e-58
6.74181e-60
6.48274e-62
5.63742e-64
4.31251e-66
2.84134e-68
1.5884e-70
7.13848e-73
2.4373e-75
5.57892e-78
6.2502e-81
1.5814e-46
1.09627e-47
5.29658e-49
1.70123e-50
4.04013e-52
7.59493e-54
1.19306e-55
1.65518e-57
2.03004e-59
2.2168e-61
2.15984e-63
1.89615e-65
1.46036e-67
9.6673e-70
5.42182e-72
2.44193e-74
8.34926e-77
1.91298e-79
2.13855e-82
2.22692e-48
1.95707e-49
1.15521e-50
4.1515e-52
1.07333e-53
2.15126e-55
3.54752e-57
5.10649e-59
6.44051e-61
7.18293e-63
7.10987e-65
6.3155e-67
4.90607e-69
3.26802e-71
1.84098e-73
8.31709e-76
2.84953e-78
6.53754e-81
7.29324e-84
2.78011e-50
3.50807e-51
2.4079e-52
9.75231e-54
2.76099e-55
5.93003e-57
1.03106e-58
1.54571e-60
2.01125e-62
2.29721e-64
2.31545e-66
2.08511e-68
1.63644e-70
1.09833e-72
6.22123e-75
2.82149e-77
9.69184e-80
2.22722e-82
2.47966e-85
3.19409e-52
6.00079e-53
4.8243e-54
2.21599e-55
6.90624e-57
1.59666e-58
2.93824e-60
4.60252e-62
6.1955e-64
7.26426e-66
7.47084e-68
6.8318e-70
5.42445e-72
3.6725e-74
2.09351e-76
9.53785e-79
3.28631e-81
7.56649e-84
8.40749e-87
4.2494e-54
9.81657e-55
9.33926e-56
4.89544e-57
1.68746e-58
4.2156e-60
8.23722e-62
1.35186e-63
1.88694e-65
2.27563e-67
2.39188e-69
2.22423e-71
1.78875e-73
1.22273e-75
7.01996e-78
3.21456e-80
1.11141e-82
2.56435e-85
2.84388e-88
5.31428e-56
1.53861e-56
1.75665e-57
1.05707e-58
4.04684e-60
1.09593e-61
2.27972e-63
3.92837e-65
5.69607e-67
7.0764e-69
7.61151e-71
7.20537e-73
5.87435e-75
4.05727e-77
2.34731e-79
1.08082e-81
3.75084e-84
8.67387e-87
9.6011e-90
6.19128e-58
2.32259e-58
3.22788e-59
2.24372e-60
9.57327e-62
2.81746e-63
6.25137e-65
1.13285e-66
1.7086e-68
2.18902e-70
2.41172e-72
2.32589e-74
1.92353e-76
1.34303e-78
7.83298e-81
3.62772e-83
1.26391e-85
2.9297e-88
3.13451e-91
5.96604e-60
3.34786e-60
5.7153e-61
4.62632e-62
2.23382e-63
7.19689e-65
1.70548e-66
3.25352e-68
5.10837e-70
6.75388e-72
7.62591e-74
7.49599e-76
6.29085e-78
4.44156e-80
2.61206e-82
1.21699e-84
4.25723e-87
9.89172e-90
1.05677e-92
1.15863e-60
3.38164e-61
2.59215e-62
1.19681e-63
3.77336e-65
9.07752e-67
2.30486e-68
4.63983e-70
7.59778e-72
1.03809e-73
1.20259e-75
1.20589e-77
1.02768e-79
7.3411e-82
4.35519e-84
2.04205e-86
7.17454e-89
1.67146e-91
1.05677e-92
)
;

boundaryField
{
    leftWall
    {
        type            zeroGradient;
    }
    rightWall
    {
        type            zeroGradient;
    }
    lowerWall
    {
        type            zeroGradient;
    }
    atmosphere
    {
        type            inletOutlet;
        inletValue      uniform 0;
        value           nonuniform List<scalar> 
46
(
0
0
0
0
0
0
0
0
0
0
0
0
0
0
0
0
0
0
0
0
0
0
0
0
0
8.90907e-64
6.9115e-62
1.15863e-60
3.38164e-61
2.59215e-62
1.19681e-63
3.77336e-65
9.07752e-67
2.30486e-68
4.63983e-70
7.59778e-72
1.03809e-73
1.20259e-75
1.20589e-77
1.02768e-79
7.3411e-82
4.35519e-84
2.04205e-86
7.17454e-89
1.67146e-91
1.05677e-92
)
;
    }
    defaultFaces
    {
        type            empty;
    }
}


// ************************************************************************* //
