/*--------------------------------*- C++ -*----------------------------------*\
| =========                 |                                                 |
| \\      /  F ield         | OpenFOAM: The Open Source CFD Toolbox           |
|  \\    /   O peration     | Version:  2206                                  |
|   \\  /    A nd           | Website:  www.openfoam.com                      |
|    \\/     M anipulation  |                                                 |
\*---------------------------------------------------------------------------*/
FoamFile
{
    version     2.0;
    format      ascii;
    arch        "LSB;label=32;scalar=64";
    class       volScalarField;
    location    "0.05";
    object      p_rgh;
}
// * * * * * * * * * * * * * * * * * * * * * * * * * * * * * * * * * * * * * //

dimensions      [1 -1 -2 0 0 0 0];

internalField   nonuniform List<scalar> 
2268
(
1290.06
1284.9
1273.71
1256.72
1233.83
1204.79
1169.29
1126.96
1077.26
1019.59
953.07
876.955
789.006
688.619
580.615
438.007
240.89
84.9179
16.1443
12.0629
11.9056
11.3473
11.1851
1304.81
1299.69
1288.67
1271.95
1249.41
1220.81
1185.83
1144.07
1094.98
1037.88
971.771
895.625
806.553
704.744
589.208
420.411
159.615
15.774
5.15086
6.39645
7.966
8.35708
8.56453
1334.62
1329.59
1318.94
1302.81
1281.05
1253.44
1219.69
1179.4
1132.07
1077.05
1013.44
940.274
855.025
759.09
647.437
443.672
76.5008
7.35591
4.90782
4.82544
5.26162
5.76719
5.97333
1379.44
1374.61
1364.53
1349.3
1328.78
1302.78
1271.05
1233.29
1189.09
1137.97
1079.31
1012.48
935.809
851.6
753.421
474.136
42.8832
5.35924
4.39918
4.27676
4.38184
4.51903
4.62649
1439
1434.44
1425.15
1411.12
1392.24
1368.39
1339.39
1305.02
1265.04
1219.16
1167.03
1108.41
1042.34
971.466
888.958
487.506
21.1038
3.94931
3.77642
3.74674
3.80249
3.85359
3.88474
1512.64
1508.47
1500.09
1487.49
1470.56
1449.24
1423.42
1392.99
1357.84
1317.83
1272.86
1222.92
1167.54
1109.32
1041.4
480.392
9.73937
3.11273
3.15512
3.16927
3.20969
3.2352
3.24698
1599.47
1595.74
1588.38
1577.32
1562.5
1543.9
1521.48
1495.19
1465.01
1430.94
1393
1351.31
1305.68
1258.43
1203.01
459.252
4.07878
2.66162
2.63993
2.6435
2.6475
2.63713
2.61995
1698.31
1695.06
1688.75
1679.28
1666.62
1650.77
1631.74
1609.54
1584.2
1555.77
1524.35
1490.1
1452.93
1414.83
1369.8
426.021
2.71286
2.36212
2.17638
2.16293
2.13163
2.07134
1.95048
0.604242
0.602268
0.598398
0.592904
0.586115
0.578388
0.570074
0.561498
0.552941
0.544632
0.536764
0.529488
0.522926
0.517169
0.512287
0.508328
0.505332
0.503324
0.502319
0.606461
0.604354
0.600218
0.594373
0.587193
0.579074
0.570393
0.561492
0.552657
0.544122
0.536072
0.528654
0.521982
0.516142
0.511197
0.507195
0.504169
0.502142
0.501127
0.611058
0.60867
0.603959
0.597363
0.589357
0.580421
0.57099
0.561436
0.552048
0.543059
0.534647
0.526945
0.520056
0.514052
0.508988
0.504899
0.501814
0.49975
0.498717
0.618321
0.615483
0.609799
0.601945
0.592589
0.58235
0.571748
0.561198
0.550983
0.541326
0.532387
0.52428
0.517083
0.510851
0.505618
0.50141
0.498243
0.496129
0.495073
0.628736
0.625245
0.618015
0.6082
0.596819
0.584701
0.57246
0.560571
0.549265
0.53875
0.529149
0.520541
0.512971
0.506462
0.50103
0.496682
0.493422
0.49125
0.490167
0.643461
0.638643
0.628944
0.616155
0.60186
0.587183
0.572862
0.559244
0.546614
0.535093
0.52474
0.515574
0.507596
0.500794
0.495154
0.490662
0.487306
0.485076
0.483965
0.658655
0.655804
0.642902
0.625669
0.607263
0.589217
0.572312
0.556733
0.54264
0.530048
0.518918
0.509196
0.500823
0.493744
0.487913
0.483291
0.47985
0.47757
0.476437
0.659839
0.680107
0.662152
0.636586
0.612193
0.590092
0.570113
0.552423
0.536865
0.523255
0.511421
0.501214
0.49251
0.485208
0.479229
0.474513
0.471014
0.468702
0.467554
1784.15
1781.29
1775.8
1767.54
1756.53
1742.78
1726.31
1707.16
1685.38
1661.05
1634.28
1605.28
1573.88
1542.46
1503.61
391.065
1.64013
1.86798
1.82097
1.81803
1.7633
1.63382
1.25308
1849.63
1847.04
1842.12
1834.72
1824.86
1812.58
1797.89
1780.86
1761.54
1740.03
1716.44
1690.97
1663.48
1636.18
1601.82
372.707
1.28202
1.58671
1.59918
1.60971
1.56626
1.4691
1.29288
1917.77
1915.45
1911.07
1904.49
1895.73
1884.84
1871.85
1856.82
1839.81
1820.94
1800.32
1778.13
1754.26
1730.67
1700.6
349.513
1.39086
1.40761
1.43569
1.45522
1.43657
1.38453
1.31305
1988.26
1986.18
1982.31
1976.51
1968.8
1959.24
1947.86
1934.71
1919.88
1903.48
1885.63
1866.51
1846.01
1825.85
1799.87
324.829
1.5567
1.31786
1.3232
1.33636
1.32494
1.28645
1.22881
2060.8
2058.96
2055.58
2050.52
2043.82
2035.53
2025.68
2014.32
2001.55
1987.48
1972.26
1956.02
1938.68
1921.72
1899.64
299.835
1.59042
1.26204
1.23931
1.23836
1.22228
1.1871
1.137
2135.16
2133.56
2130.65
2126.3
2120.57
2113.49
2105.11
2095.47
2084.66
2072.82
2060.07
2046.55
2032.2
2018.24
1999.87
274.966
1.54105
1.2095
1.16957
1.15482
1.13289
1.10014
1.05841
2211.04
2209.68
2207.23
2203.57
2198.75
2192.81
2185.82
2177.8
2168.87
2159.13
2148.72
2137.77
2126.22
2115.12
2100.43
250.466
1.43746
1.14661
1.10356
1.0792
1.05253
1.02061
0.98385
2288.34
2287.23
2285.22
2282.21
2278.23
2273.36
2267.65
2261.16
2253.99
2246.24
2238.03
2229.49
2220.53
2212.12
2201.13
225.978
1.3215
1.08512
1.03752
1.00612
0.975482
0.943617
0.910198
2367.3
2366.33
2364.75
2362.35
2359.15
2355.26
2350.74
2345.66
2340.12
2334.22
2328.09
2321.83
2315.34
2309.49
2301.95
201.812
1.22834
1.0223
0.970039
0.931964
0.897931
0.866427
0.836299
2446.27
2445.11
2443.86
2442.03
2439.54
2436.54
2433.07
2429.23
2425.09
2420.79
2416.47
2412.32
2408.3
2405.37
2401.59
178.857
1.14424
0.96479
0.90095
0.853571
0.816648
0.786456
0.760334
2519.83
2518.59
2517.61
2516.23
2514.33
2512.04
2509.44
2506.57
2503.54
2500.48
2497.57
2495.07
2493.14
2493.35
2493.71
181.643
1.06494
0.923174
0.826115
0.766464
0.727858
0.700978
0.680634
2592.32
2591.82
2591.19
2590.16
2588.78
2587.13
2585.26
2583.24
2581.14
2579.12
2577.32
2576.1
2575.01
2576.24
2559.54
447.12
1.15461
0.890032
0.724342
0.6584
0.62542
0.606985
0.595944
2352.74
2350.56
2346.85
2341.4
2334.01
2324.78
2313.72
2300.8
2285.99
2269.01
2249.49
2230.7
2174.56
2133.57
1628.45
607.35
4.17202
0.817266
0.565313
0.512958
0.502642
0.502685
0.506087
528.037
525.787
521.472
515.569
507.616
497.82
486.256
472.985
458.03
441.067
421.988
403.958
347.145
315.296
27.4039
98.3671
80.1368
5.20371
0.302567
0.302803
0.353806
0.388897
0.412952
-1.17416
-1.16944
-1.16425
-1.15625
-1.14561
-1.1322
-1.11638
-1.09858
-1.0795
-1.05994
-1.0407
-1.02706
-1.03158
-1.0667
-1.11738
-1.63126
14.4685
6.44809
0.232372
0.0728737
0.199068
0.275247
0.321673
-1.10652
-1.10295
-1.09753
-1.08953
-1.07861
-1.06493
-1.04868
-1.03012
-1.00956
-0.987205
-0.964586
-0.944366
-0.922
-0.906941
-0.972855
-1.05062
-0.613121
1.16006
-0.117596
-0.0789333
0.080953
0.178358
0.240258
-1.02719
-1.02394
-1.01832
-1.00973
-0.99815
-0.983825
-0.966823
-0.9472
-0.925047
-0.900521
-0.874488
-0.846511
-0.813736
-0.786259
-0.789893
-0.777744
-0.652567
-0.504268
-0.279431
-0.105674
0.0216957
0.111635
0.175777
-0.955946
-0.953476
-0.947647
-0.938614
-0.926772
-0.912203
-0.894823
-0.874551
-0.851368
-0.825296
-0.79628
-0.763074
-0.725447
-0.689428
-0.658887
-0.607685
-0.497494
-0.351786
-0.211668
-0.0985464
-0.00558018
0.0688819
0.127694
-0.887458
-0.884894
-0.878777
-0.869526
-0.857523
-0.842706
-0.824907
-0.803996
-0.779933
-0.752668
-0.721776
-0.686253
-0.646196
-0.602966
-0.554176
-0.490079
-0.402225
-0.29797
-0.19408
-0.103769
-0.0269279
0.0373749
0.0906919
-0.823112
-0.819991
-0.813765
-0.804649
-0.79272
-0.77786
-0.759889
-0.738666
-0.714145
-0.686265
-0.654635
-0.6186
-0.578037
-0.532746
-0.480475
-0.417582
-0.343389
-0.263155
-0.183408
-0.109639
-0.0441032
0.0127194
0.0613588
-0.761438
-0.758212
-0.752155
-0.743285
-0.731546
-0.716844
-0.699023
-0.677925
-0.653484
-0.625654
-0.594205
-0.558744
-0.518998
-0.474544
-0.424368
-0.367489
-0.304603
-0.238873
-0.173893
-0.11243
-0.0562009
-0.00594477
0.0382772
-0.702714
-0.699839
-0.694085
-0.685413
-0.673859
-0.659421
-0.642001
-0.621445
-0.597662
-0.570612
-0.540192
-0.506205
-0.46844
-0.426629
-0.380469
-0.329977
-0.276063
-0.220638
-0.165826
-0.113344
-0.0644328
-0.0197912
0.0203219
-0.648008
-0.645506
-0.640027
-0.631536
-0.620202
-0.606109
-0.589233
-0.569476
-0.546739
-0.520973
-0.492142
-0.460175
-0.424976
-0.386472
-0.344698
-0.299985
-0.253139
-0.20542
-0.15823
-0.112684
-0.0696907
-0.0298571
0.00649878
-0.59719
-0.594885
-0.589651
-0.581453
-0.570509
-0.556927
-0.540746
-0.521937
-0.500433
-0.476193
-0.44921
-0.419487
-0.38703
-0.351898
-0.314275
-0.274564
-0.233431
-0.191766
-0.150535
-0.110587
-0.0725453
-0.0369058
-0.00398817
-0.549141
-0.546903
-0.541932
-0.534201
-0.523871
-0.511028
-0.495739
-0.478026
-0.457872
-0.435266
-0.410227
-0.382802
-0.353069
-0.321164
-0.287331
-0.251961
-0.215601
-0.178915
-0.142599
-0.107294
-0.0734842
-0.0415528
-0.0117872
-0.502871
-0.500668
-0.496005
-0.488865
-0.479318
-0.46741
-0.453205
-0.436742
-0.41805
-0.397158
-0.374111
-0.348991
-0.321919
-0.293071
-0.262704
-0.231173
-0.198928
-0.166478
-0.134349
-0.10303
-0.0729169
-0.0443025
-0.0174302
-0.458102
-0.455964
-0.451643
-0.445134
-0.436433
-0.425559
-0.412549
-0.397451
-0.380316
-0.361202
-0.340181
-0.317358
-0.292876
-0.266927
-0.239758
-0.211683
-0.183072
-0.154329
-0.12586
-0.0980432
-0.0711962
-0.045567
-0.0213508
-0.415123
-0.413096
-0.40913
-0.403228
-0.395354
-0.385514
-0.373722
-0.360027
-0.344487
-0.327172
-0.308174
-0.287609
-0.265626
-0.242415
-0.218205
-0.19327
-0.167914
-0.142461
-0.117233
-0.0925276
-0.0686037
-0.0456741
-0.023897
-0.374395
-0.372517
-0.368901
-0.363559
-0.356455
-0.347588
-0.336971
-0.324646
-0.310669
-0.295115
-0.278081
-0.259685
-0.240073
-0.219421
-0.197937
-0.175854
-0.153425
-0.130914
-0.108579
-0.0866597
-0.0653696
-0.0448842
-0.0253457
-0.336252
-0.334543
-0.331264
-0.326437
-0.320039
-0.312068
-0.302546
-0.29151
-0.279013
-0.265129
-0.249951
-0.233592
-0.216188
-0.197898
-0.178903
-0.159401
-0.139604
-0.119728
-0.0999834
-0.0805672
-0.0616549
-0.0433948
-0.0259134
-0.300787
-0.299252
-0.296296
-0.291949
-0.286197
-0.279051
-0.270538
-0.260693
-0.249569
-0.237234
-0.223775
-0.209295
-0.193917
-0.17778
-0.16104
-0.143866
-0.126434
-0.108921
-0.0915035
-0.074343
-0.0575862
-0.0413595
-0.0257692
-0.267878
-0.266509
-0.263864
-0.259966
-0.254817
-0.248436
-0.240853
-0.232104
-0.222242
-0.211329
-0.199444
-0.18668
-0.173144
-0.158958
-0.144256
-0.129178
-0.113872
-0.0984862
-0.083166
-0.0680466
-0.0532509
-0.0388869
-0.025045
-0.237263
-0.236055
-0.233706
-0.230234
-0.225653
-0.219988
-0.213266
-0.20553
-0.196827
-0.187217
-0.17677
-0.165567
-0.153705
-0.141287
-0.128425
-0.11524
-0.101854
-0.0883915
-0.0749727
-0.0617108
-0.0487099
-0.0360618
-0.0238441
-0.208634
-0.207578
-0.205508
-0.202443
-0.198402
-0.193407
-0.187492
-0.180695
-0.173064
-0.164652
-0.155521
-0.145747
-0.13541
-0.1246
-0.113411
-0.101945
-0.0903044
-0.0785929
-0.0669104
-0.055352
-0.0440053
-0.0329483
-0.0222477
-0.18168
-0.180765
-0.178959
-0.176283
-0.172752
-0.168391
-0.163234
-0.157316
-0.150681
-0.143378
-0.135464
-0.127004
-0.118068
-0.108732
-0.0990752
-0.0891839
-0.0791439
-0.0690411
-0.0589587
-0.0489761
-0.0391667
-0.0295962
-0.0203207
-0.156114
-0.155329
-0.153776
-0.151468
-0.148422
-0.144663
-0.140222
-0.135131
-0.129429
-0.123163
-0.116382
-0.109142
-0.101503
-0.0935301
-0.0852909
-0.0768568
-0.0682993
-0.0596892
-0.0510957
-0.0425847
-0.0342171
-0.0260474
-0.0181222
-0.131686
-0.131024
-0.129709
-0.127753
-0.12517
-0.121984
-0.118222
-0.113913
-0.109093
-0.103803
-0.0980854
-0.0919881
-0.0855623
-0.0788634
-0.0719487
-0.0648771
-0.0577069
-0.0504964
-0.0433024
-0.0361787
-0.0291752
-0.0223363
-0.0156999
-0.108177
-0.107631
-0.106544
-0.104923
-0.102783
-0.100145
-0.0970304
-0.0934666
-0.0894854
-0.0851211
-0.0804104
-0.0753936
-0.0701145
-0.0646195
-0.0589559
-0.0531714
-0.0473131
-0.0414283
-0.0355625
-0.0297593
-0.0240583
-0.0184944
-0.0130974
-0.0853993
-0.0849647
-0.0840939
-0.0827955
-0.0810814
-0.0789675
-0.0764741
-0.0736251
-0.070447
-0.0669681
-0.0632192
-0.0592341
-0.0550496
-0.0507035
-0.0462335
-0.0416774
-0.0370725
-0.0324559
-0.0278636
-0.0233292
-0.0188827
-0.0145507
-0.010355
-0.0632813
-0.0629546
-0.0622922
-0.0613017
-0.0599928
-0.0583796
-0.0564798
-0.0543137
-0.0519026
-0.0492695
-0.04644
-0.0434423
-0.0403057
-0.0370599
-0.0337341
-0.0303572
-0.0269576
-0.0235634
-0.020201
-0.0168948
-0.0136661
-0.010533
-0.00751028
-0.0415701
-0.0413568
-0.0408999
-0.0402091
-0.0392942
-0.0381682
-0.0368459
-0.0353432
-0.0336771
-0.0318659
-0.0299302
-0.027892
-0.0257736
-0.0235969
-0.0213832
-0.0191535
-0.0169278
-0.0147253
-0.0125636
-0.0104583
-0.00842231
-0.00646606
-0.00459738
-0.0187354
-0.0186555
-0.0184223
-0.0180596
-0.0175788
-0.0169896
-0.0163021
-0.0155268
-0.0146747
-0.0137582
-0.0127907
-0.0117859
-0.0107577
-0.0097191
-0.00868265
-0.00766001
-0.00666198
-0.00569821
-0.00477698
-0.00390489
-0.00308686
-0.00232606
-0.00162409
0.550633
0.751228
0.863861
0.827701
1.01727
0.961513
0.930662
0.870088
1.16133
1.02755
0.947873
0.882115
1.12458
1.01987
0.943388
0.878752
1.06553
0.9886
0.920947
0.860832
1.00455
0.943256
0.885112
0.832018
0.93951
0.889532
0.841
0.795539
0.872651
0.831754
0.791767
0.753635
0.804637
0.771411
0.739043
0.707856
0.734726
0.708836
0.683733
0.659269
0.662233
0.644166
0.626439
0.608675
0.58691
0.577716
0.56776
0.556804
0.509206
0.510179
0.508481
0.504453
0.430831
0.442902
0.449702
0.452557
0.354768
0.377789
0.392769
0.402167
0.285063
0.317108
0.339099
0.354198
0.225496
0.263031
0.290072
0.309659
0.176941
0.216535
0.246496
0.26918
0.137608
0.177218
0.208454
0.232988
0.105546
0.144159
0.175581
0.200994
0.0794959
0.116503
0.147374
0.172938
0.0584792
0.093498
0.12331
0.148483
0.0416328
0.0744542
0.102871
0.127261
0.0282235
0.0587563
0.0855684
0.108905
0.0176361
0.0458674
0.0709588
0.0930619
0.00935691
0.0353263
0.0586474
0.0794065
0.00296119
0.0267419
0.0482902
0.067647
-0.0018982
0.0197875
0.0395918
0.057525
-0.00550205
0.0141922
0.0323011
0.0488147
-0.00807549
0.00973296
0.0262058
0.0413198
-0.00979907
0.00622618
0.0211263
0.0348705
-0.010818
0.00352007
0.0169107
0.0293194
-0.0112496
0.00148847
0.0134296
0.0245387
-0.0111916
2.52037e-05
0.0105723
0.0204165
-0.0107184
-0.000959147
0.00824208
0.0168533
-0.00990884
-0.00154599
0.00635281
0.01376
-0.00881851
-0.00180535
0.0048272
0.0110552
-0.00750247
-0.00180095
0.00359484
0.00866447
-0.00601108
-0.00158807
0.00259091
0.00651819
-0.00439225
-0.00122916
0.00175233
0.00455012
-0.0026886
-0.000771813
0.00102062
0.00269638
-0.000932968
-0.000266906
0.000334862
0.000891436
0.740918
0.715067
0.680247
0.644096
0.614066
0.588246
0.566078
0.546968
0.530471
0.516241
0.504
0.493531
0.484662
0.477261
0.471224
0.466478
0.462965
0.460648
0.459499
0.787312
0.7296
0.685767
0.646024
0.612964
0.585289
0.561878
0.541951
0.524927
0.51036
0.497911
0.487319
0.478383
0.470949
0.464902
0.460156
0.45665
0.454338
0.453193
0.804124
0.737057
0.686797
0.644439
0.609463
0.580509
0.556251
0.535781
0.51842
0.503657
0.491103
0.480466
0.471521
0.4641
0.458076
0.453356
0.449873
0.447578
0.446442
0.804848
0.735649
0.68254
0.639058
0.603271
0.573716
0.549071
0.528371
0.510894
0.496093
0.483551
0.472955
0.464067
0.456708
0.450744
0.446077
0.442635
0.440369
0.439247
0.792562
0.725844
0.673032
0.629878
0.594287
0.564828
0.540269
0.519672
0.502317
0.487648
0.475243
0.464781
0.456018
0.448773
0.442907
0.438321
0.434941
0.432717
0.431616
0.770855
0.70903
0.658642
0.617075
0.582569
0.553853
0.529843
0.509679
0.492682
0.478319
0.466178
0.455945
0.447379
0.440301
0.434574
0.430098
0.4268
0.42463
0.423556
0.742112
0.686473
0.639917
0.600951
0.568282
0.540878
0.517839
0.498419
0.482009
0.468121
0.45637
0.44646
0.438162
0.431304
0.425755
0.421418
0.418222
0.416119
0.415078
0.708052
0.659297
0.617486
0.581886
0.551661
0.526049
0.504351
0.485955
0.470342
0.457086
0.445844
0.436347
0.428385
0.421798
0.416465
0.412294
0.40922
0.407196
0.406194
0.670025
0.628496
0.591994
0.560306
0.53299
0.509557
0.489507
0.472375
0.457744
0.445262
0.434637
0.425636
0.418073
0.411805
0.406724
0.402745
0.39981
0.397878
0.39692
0.629081
0.594929
0.564063
0.536652
0.512582
0.491619
0.473461
0.457788
0.444296
0.43271
0.422797
0.414365
0.407257
0.401351
0.396553
0.392791
0.390012
0.388181
0.387274
0.58608
0.559349
0.534285
0.511364
0.490762
0.472474
0.456385
0.442322
0.430091
0.419501
0.410379
0.402578
0.395973
0.390466
0.38598
0.382455
0.379847
0.378127
0.377274
0.541789
0.522443
0.503216
0.484876
0.467855
0.452364
0.438461
0.426113
0.415233
0.405714
0.397445
0.390324
0.384261
0.379184
0.375033
0.371762
0.369339
0.367737
0.366942
0.496958
0.484857
0.471386
0.457603
0.444184
0.431535
0.419876
0.409303
0.399832
0.391434
0.384061
0.377656
0.372166
0.367541
0.363744
0.360742
0.358512
0.357035
0.356301
0.45235
0.447216
0.439294
0.429941
0.420056
0.410225
0.400813
0.392034
0.383997
0.376748
0.370297
0.364632
0.359732
0.355577
0.352147
0.349423
0.347393
0.346046
0.345376
0.408729
0.410112
0.40741
0.402256
0.39576
0.388662
0.381452
0.374446
0.367839
0.361744
0.356223
0.351307
0.347009
0.343332
0.340275
0.337836
0.33601
0.334796
0.334191
0.366893
0.374103
0.37616
0.37488
0.371562
0.367057
0.36196
0.356674
0.351466
0.346507
0.341909
0.33774
0.334043
0.330845
0.328165
0.326011
0.324392
0.323312
0.322772
0.327384
0.339643
0.345922
0.348101
0.347698
0.345603
0.342492
0.338843
0.334979
0.331121
0.327422
0.323985
0.320881
0.318158
0.31585
0.31398
0.312567
0.311619
0.311145
0.290715
0.307083
0.316924
0.322203
0.324378
0.324469
0.323188
0.321068
0.318472
0.315663
0.312827
0.310098
0.30757
0.305309
0.303365
0.301774
0.300562
0.299745
0.299336
0.257155
0.276685
0.289434
0.297318
0.301761
0.303802
0.304167
0.303449
0.30203
0.300204
0.298185
0.29613
0.294152
0.292336
0.290744
0.289423
0.288406
0.287716
0.287369
0.226773
0.248576
0.263595
0.273606
0.279968
0.283697
0.285544
0.286075
0.28573
0.284811
0.28355
0.282126
0.280669
0.279275
0.278018
0.276955
0.276125
0.275558
0.275271
0.199496
0.222789
0.239478
0.25116
0.259096
0.264255
0.267376
0.269026
0.269637
0.26954
0.268971
0.268132
0.267159
0.266159
0.265218
0.264397
0.263745
0.263294
0.263065
0.17516
0.199275
0.217097
0.230027
0.239207
0.245541
0.249736
0.252349
0.253806
0.254443
0.254491
0.254186
0.253656
0.25302
0.252371
0.251776
0.25129
0.250947
0.250772
0.153551
0.177934
0.196421
0.210215
0.220331
0.227595
0.232673
0.236094
0.238276
0.239548
0.24016
0.240322
0.240191
0.239885
0.239502
0.239116
0.238782
0.238539
0.238414
0.134427
0.158634
0.177387
0.191705
0.202475
0.210441
0.216214
0.220295
0.223083
0.224898
0.225992
0.22657
0.226791
0.226778
0.226636
0.226437
0.226241
0.22609
0.226011
0.117542
0.141219
0.159908
0.174455
0.185627
0.194082
0.200377
0.204974
0.208252
0.210517
0.212016
0.21295
0.213477
0.213723
0.21379
0.213759
0.213687
0.213617
0.213579
0.102654
0.12553
0.143882
0.158408
0.169757
0.178509
0.185163
0.190142
0.193798
0.196423
0.198252
0.199482
0.200267
0.200734
0.200985
0.201098
0.201135
0.201136
0.201135
0.0895365
0.111405
0.129202
0.143493
0.154826
0.163703
0.170566
0.1758
0.179729
0.182625
0.184713
0.18618
0.187176
0.187827
0.188232
0.188469
0.188598
0.188662
0.188692
0.0779791
0.0986887
0.115756
0.129635
0.140784
0.149632
0.156571
0.161943
0.166046
0.16913
0.171407
0.173054
0.174216
0.175014
0.175544
0.175883
0.17609
0.176206
0.176262
0.0677917
0.0872328
0.103433
0.116754
0.127574
0.136261
0.143154
0.148558
0.152742
0.155936
0.158337
0.16011
0.161394
0.162303
0.162931
0.163351
0.16362
0.163778
0.163855
0.0588032
0.0768988
0.0921254
0.104768
0.115138
0.123546
0.130286
0.135626
0.139808
0.14304
0.145502
0.14735
0.148714
0.149701
0.150399
0.150879
0.151195
0.151386
0.151479
0.0508605
0.0675586
0.0817295
0.0935964
0.103414
0.111442
0.117934
0.123125
0.127227
0.13043
0.132898
0.134774
0.136177
0.137209
0.137953
0.138473
0.138822
0.139036
0.13914
0.0438272
0.0590943
0.0721472
0.0831597
0.0923381
0.0999005
0.106062
0.111027
0.114982
0.118096
0.120517
0.122376
0.123783
0.12483
0.125594
0.126136
0.126504
0.126731
0.126842
0.0375817
0.0513975
0.0632856
0.0733806
0.081849
0.0888719
0.0946313
0.0993026
0.103049
0.10602
0.108348
0.11015
0.111526
0.11256
0.113322
0.113868
0.114242
0.114475
0.114588
0.0320149
0.0443686
0.0550571
0.0641843
0.071884
0.0783053
0.083601
0.0879208
0.0914056
0.0941856
0.096378
0.0980863
0.0994002
0.100395
0.101135
0.101669
0.102037
0.102267
0.102379
0.0270282
0.0379154
0.0473789
0.0554987
0.0623816
0.0681496
0.0729296
0.0768475
0.0800239
0.0825708
0.0845901
0.0861726
0.087397
0.0883303
0.089028
0.0895349
0.0898859
0.0901066
0.090213
0.0225316
0.0319523
0.0401728
0.0472543
0.0532819
0.0583538
0.0625743
0.066048
0.068876
0.0711533
0.0729671
0.0743953
0.0755058
0.0763565
0.0769957
0.0774623
0.0777865
0.0779909
0.0780891
0.0184424
0.0263993
0.0333643
0.0393843
0.0445259
0.0488673
0.0524924
0.0554863
0.0579324
0.0599092
0.0614896
0.0627389
0.0637142
0.0644645
0.0650305
0.065445
0.065734
0.0659165
0.0660037
0.0146837
0.0211811
0.0268827
0.031824
0.0360561
0.0396396
0.0426405
0.0451259
0.0471624
0.0488132
0.0501369
0.0511867
0.052009
0.0526436
0.0531237
0.0534764
0.0537228
0.0538787
0.0539527
0.0111833
0.0162265
0.0206602
0.0245108
0.0278159
0.030621
0.0329753
0.0349297
0.0365348
0.0378389
0.0388873
0.0397209
0.0403755
0.040882
0.0412661
0.0415487
0.0417466
0.0418719
0.041931
0.00787243
0.0114669
0.0146312
0.0173835
0.0197501
0.0217619
0.0234535
0.0248602
0.0260175
0.0269596
0.0277184
0.0283228
0.0287985
0.0291672
0.0294472
0.0296536
0.0297983
0.0298901
0.0299329
0.00468434
0.00683608
0.00873191
0.0103828
0.0118039
0.0130136
0.0140319
0.0148798
0.0155784
0.0161478
0.016607
0.0169734
0.0172621
0.0174861
0.0176565
0.0177821
0.0178703
0.0179265
0.0179522
0.00155185
0.00226718
0.00289793
0.00344772
0.00392153
0.0043253
0.00466561
0.00494933
0.00518334
0.00537434
0.00552859
0.00565179
0.00574896
0.00582443
0.00588188
0.0059243
0.00595411
0.0059732
0.00598182
)
;

boundaryField
{
    leftWall
    {
        type            fixedFluxPressure;
        gradient        uniform 0;
        value           nonuniform List<scalar> 
50
(
1290.06
1304.81
1334.62
1379.44
1439
1512.64
1599.47
1698.31
1784.15
1849.63
1917.77
1988.26
2060.8
2135.16
2211.04
2288.34
2367.3
2446.27
2519.83
2592.32
2352.74
528.037
-1.17416
-1.10652
-1.02719
-0.955946
-0.887458
-0.823112
-0.761438
-0.702714
-0.648008
-0.59719
-0.549141
-0.502871
-0.458102
-0.415123
-0.374395
-0.336252
-0.300787
-0.267878
-0.237263
-0.208634
-0.18168
-0.156114
-0.131686
-0.108177
-0.0853993
-0.0632813
-0.0415701
-0.0187354
)
;
    }
    rightWall
    {
        type            fixedFluxPressure;
        gradient        uniform 0;
        value           nonuniform List<scalar> 
50
(
0.502319
0.501127
0.498717
0.495073
0.490167
0.483965
0.476437
0.467554
0.459499
0.453193
0.446442
0.439247
0.431616
0.423556
0.415078
0.406194
0.39692
0.387274
0.377274
0.366942
0.356301
0.345376
0.334191
0.322772
0.311145
0.299336
0.287369
0.275271
0.263065
0.250772
0.238414
0.226011
0.213579
0.201135
0.188692
0.176262
0.163855
0.151479
0.13914
0.126842
0.114588
0.102379
0.090213
0.0780891
0.0660037
0.0539527
0.041931
0.0299329
0.0179522
0.00598182
)
;
    }
    lowerWall
    {
        type            fixedFluxPressure;
        gradient        uniform 0;
        value           nonuniform List<scalar> 
62
(
1290.06
1284.9
1273.71
1256.72
1233.83
1204.79
1169.29
1126.96
1077.26
1019.59
953.07
876.955
789.006
688.619
580.615
438.007
240.89
84.9179
16.1443
12.0629
11.9056
11.3473
11.1851
11.1851
8.56453
5.97333
4.62649
3.88474
3.24698
2.61995
1.95048
0.550633
0.751228
0.863861
0.827701
0.604242
0.606461
0.611058
0.618321
0.628736
0.643461
0.658655
0.659839
0.604242
0.602268
0.598398
0.592904
0.586115
0.578388
0.570074
0.561498
0.552941
0.544632
0.536764
0.529488
0.522926
0.517169
0.512287
0.508328
0.505332
0.503324
0.502319
)
;
    }
    atmosphere
    {
        type            totalPressure;
        rho             rho;
        psi             none;
        gamma           1;
        p0              uniform 0;
        value           nonuniform List<scalar> 
46
(
-0.00619354
-0.00622521
-0.00610984
-0.00593758
-0.00571284
-0.00544056
-0.00512653
-0.00477729
-0.00440004
-0.00400244
-0.00359245
-0.00317809
-0.00276725
-0.00236741
-0.00198549
-0.00162767
-0.00129919
-0.00100428
-0.000746041
-0.000526457
-0.000346398
-0.000205685
-0.000103186
-3.33532e-05
-1.58593e-06
0
0
0
0
0
0
0
0
0
0
0
0
0
0
0
0
0
0
0
0
0
)
;
    }
    defaultFaces
    {
        type            empty;
    }
}


// ************************************************************************* //
