/*--------------------------------*- C++ -*----------------------------------*\
| =========                 |                                                 |
| \\      /  F ield         | OpenFOAM: The Open Source CFD Toolbox           |
|  \\    /   O peration     | Version:  2206                                  |
|   \\  /    A nd           | Website:  www.openfoam.com                      |
|    \\/     M anipulation  |                                                 |
\*---------------------------------------------------------------------------*/
FoamFile
{
    version     2.0;
    format      ascii;
    arch        "LSB;label=32;scalar=64";
    class       surfaceScalarField;
    location    "0.05";
    object      phi;
}
// * * * * * * * * * * * * * * * * * * * * * * * * * * * * * * * * * * * * * //

dimensions      [0 3 -1 0 0 0 0];

oriented        oriented;

internalField   nonuniform List<scalar> 
4432
(
7.75913e-06
-7.75913e-06
1.59544e-05
-8.19536e-06
2.41293e-05
-8.17495e-06
3.25043e-05
-8.37503e-06
4.11869e-05
-8.68254e-06
5.0277e-05
-9.09007e-06
5.98932e-05
-9.61617e-06
7.01803e-05
-1.02871e-05
8.1319e-05
-1.11388e-05
9.354e-05
-1.22209e-05
0.000107145
-1.3605e-05
0.000122518
-1.53726e-05
0.000140214
-1.76963e-05
0.000160985
-2.07708e-05
0.000184816
-2.38312e-05
0.000216497
-3.16812e-05
0.000257427
-4.09303e-05
0.000301788
-4.43605e-05
0.000301538
2.50564e-07
0.000281672
1.9865e-05
0.000236151
4.55214e-05
0.000147418
8.87329e-05
0.000147419
7.52504e-06
-1.52841e-05
1.54207e-05
-1.60909e-05
2.32969e-05
-1.60511e-05
3.13419e-05
-1.64201e-05
3.96409e-05
-1.69815e-05
4.82704e-05
-1.77196e-05
5.7317e-05
-1.86628e-05
6.68797e-05
-1.98499e-05
7.70733e-05
-2.13323e-05
8.80318e-05
-2.31794e-05
9.99138e-05
-2.54871e-05
0.000112914
-2.83732e-05
0.000127288
-3.20704e-05
0.000143307
-3.67897e-05
0.000161285
-4.18091e-05
0.00018409
-5.44863e-05
0.000217105
-7.3945e-05
0.000247304
-7.45597e-05
0.000269223
-2.16687e-05
0.000234679
5.44094e-05
0.000161913
0.000118288
7.66726e-05
0.000173973
0.000224092
7.08246e-06
-2.23667e-05
1.44338e-05
-2.34422e-05
2.17664e-05
-2.33837e-05
2.92195e-05
-2.38731e-05
3.68462e-05
-2.46081e-05
4.46921e-05
-2.55655e-05
5.28044e-05
-2.67751e-05
6.12305e-05
-2.8276e-05
7.00163e-05
-3.01182e-05
7.9203e-05
-3.23663e-05
8.88206e-05
-3.51048e-05
9.88812e-05
-3.84338e-05
0.000109342
-4.25308e-05
0.000120033
-4.74815e-05
0.000130964
-5.27397e-05
0.000142435
-6.59572e-05
0.000142939
-7.44494e-05
0.000123976
-5.55965e-05
7.62739e-05
2.6034e-05
2.50392e-05
0.000105645
-7.85552e-06
0.000151182
-1.85877e-05
0.000184705
0.000205503
6.48813e-06
-2.88548e-05
1.31315e-05
-3.00856e-05
1.97598e-05
-3.0012e-05
2.64567e-05
-3.057e-05
3.32444e-05
-3.13958e-05
4.01401e-05
-3.24612e-05
4.71566e-05
-3.37916e-05
5.4299e-05
-3.54184e-05
6.15606e-05
-3.73797e-05
6.89162e-05
-3.9722e-05
7.63125e-05
-4.25011e-05
8.36555e-05
-4.57767e-05
9.07743e-05
-4.96496e-05
9.7396e-05
-5.41032e-05
0.000103333
-5.86767e-05
0.000108748
-7.13722e-05
0.000106028
-7.17295e-05
6.06699e-05
-1.02377e-05
-5.5414e-06
9.22442e-05
-3.67908e-05
0.000136894
-4.25652e-05
0.000156957
-2.90529e-05
0.000171195
0.00017645
5.80112e-06
-3.46558e-05
1.16548e-05
-3.59392e-05
1.74992e-05
-3.58564e-05
2.33672e-05
-3.6438e-05
2.92567e-05
-3.72853e-05
3.51639e-05
-3.83685e-05
4.10784e-05
-3.97062e-05
4.69793e-05
-4.13194e-05
5.28319e-05
-4.32323e-05
5.85819e-05
-4.5472e-05
6.41486e-05
-4.80679e-05
6.9418e-05
-5.1046e-05
7.42211e-05
-5.44528e-05
7.834e-05
-5.8222e-05
8.16586e-05
-6.19954e-05
8.40259e-05
-7.37395e-05
7.46211e-05
-6.23247e-05
1.91234e-05
4.52599e-05
-1.81023e-05
0.000129469
-2.75756e-05
0.000146368
-2.49099e-05
0.00015429
-1.43774e-05
0.000160664
0.000162072
5.07663e-06
-3.97324e-05
1.01256e-05
-4.09882e-05
1.51725e-05
-4.09033e-05
2.02091e-05
-4.14744e-05
2.52177e-05
-4.22938e-05
3.01823e-05
-4.33331e-05
3.50799e-05
-4.46037e-05
3.98782e-05
-4.61177e-05
4.4533e-05
-4.78871e-05
4.89852e-05
-4.99242e-05
5.31572e-05
-5.22397e-05
5.69503e-05
-5.48392e-05
6.02346e-05
-5.7737e-05
6.28741e-05
-6.08616e-05
6.4824e-05
-6.39452e-05
6.58359e-05
-7.47514e-05
4.73652e-05
-4.38542e-05
-2.10309e-06
9.47279e-05
-1.24746e-05
0.000139841
-1.19859e-05
0.00014588
-8.78152e-06
0.000151086
-4.29465e-06
0.000156175
0.000157778
4.35963e-06
-4.40922e-05
8.63694e-06
-4.52656e-05
1.29191e-05
-4.51855e-05
1.71688e-05
-4.57242e-05
2.1361e-05
-4.64861e-05
2.54739e-05
-4.74459e-05
2.94799e-05
-4.86098e-05
3.33445e-05
-4.99824e-05
3.7025e-05
-5.15677e-05
4.04691e-05
-5.33682e-05
4.36134e-05
-5.53839e-05
4.6384e-05
-5.76098e-05
4.86869e-05
-6.00399e-05
5.04426e-05
-6.26173e-05
5.16396e-05
-6.51422e-05
5.17283e-05
-7.48402e-05
3.08096e-05
-2.29355e-05
1.19223e-06
0.000124346
1.32753e-06
0.000139706
4.49308e-06
0.000142715
7.37486e-06
0.000148204
7.98543e-06
0.000155566
0.000165764
3.68031e-06
-4.77724e-05
7.24481e-06
-4.88301e-05
1.08215e-05
-4.87622e-05
1.43544e-05
-4.9257e-05
1.78159e-05
-4.99476e-05
2.11827e-05
-5.08128e-05
2.44277e-05
-5.18548e-05
2.75191e-05
-5.30738e-05
3.04199e-05
-5.44684e-05
3.30876e-05
-5.60359e-05
3.54744e-05
-5.77708e-05
3.75299e-05
-5.96653e-05
3.91943e-05
-6.17043e-05
4.04786e-05
-6.39015e-05
4.12727e-05
-6.59363e-05
4.18441e-05
-7.54119e-05
1.55874e-05
3.32141e-06
8.50116e-06
0.000131431
1.57062e-05
0.0001325
2.3911e-05
0.000134508
3.00759e-05
0.000142036
2.98594e-05
0.000155783
0.000195623
1.85342e-06
-1.85342e-06
3.58838e-06
-1.73554e-06
5.07101e-06
-1.48303e-06
6.24217e-06
-1.17149e-06
7.07911e-06
-8.37231e-07
7.59066e-06
-5.11886e-07
7.80584e-06
-2.1562e-07
7.76484e-06
4.10326e-08
7.5159e-06
2.48912e-07
7.09779e-06
4.18107e-07
6.54635e-06
5.51356e-07
5.89198e-06
6.54133e-07
5.15977e-06
7.32037e-07
4.36978e-06
7.90042e-07
3.53759e-06
8.32256e-07
2.67536e-06
8.62049e-07
1.79289e-06
8.82129e-07
8.9814e-07
8.94425e-07
8.97911e-07
2.01137e-06
-3.8654e-06
3.87905e-06
-3.60395e-06
5.44213e-06
-3.04666e-06
6.64446e-06
-2.37441e-06
7.47369e-06
-1.66707e-06
7.95237e-06
-9.90795e-07
8.12172e-06
-3.85251e-07
8.03452e-06
1.28047e-07
7.74127e-06
5.41971e-07
7.28277e-06
8.76343e-07
6.69583e-06
1.13814e-06
6.01114e-06
1.33892e-06
5.25329e-06
1.49002e-06
4.44161e-06
1.60166e-06
3.59102e-06
1.6825e-06
2.71312e-06
1.73948e-06
1.81693e-06
1.77782e-06
9.09588e-07
1.8013e-06
1.80728e-06
2.35375e-06
-6.21956e-06
4.49823e-06
-5.74899e-06
6.21508e-06
-4.76389e-06
7.46259e-06
-3.62222e-06
8.25668e-06
-2.46165e-06
8.65186e-06
-1.38648e-06
8.7148e-06
-4.48181e-07
8.52222e-06
3.20613e-07
8.1291e-06
9.35001e-07
7.58365e-06
1.42191e-06
6.9244e-06
1.79763e-06
6.18137e-06
2.08204e-06
5.37762e-06
2.29374e-06
4.53053e-06
2.44873e-06
3.65292e-06
2.56002e-06
2.75428e-06
2.63776e-06
1.84191e-06
2.68968e-06
9.21422e-07
2.72136e-06
2.7285e-06
2.9656e-06
-9.18545e-06
5.58295e-06
-8.36663e-06
7.52597e-06
-6.70722e-06
8.80395e-06
-4.90054e-06
9.50105e-06
-3.15872e-06
9.73473e-06
-1.6202e-06
9.61058e-06
-3.24138e-07
9.24698e-06
6.84198e-07
8.6998e-06
1.48221e-06
8.02347e-06
2.09832e-06
7.25718e-06
2.56401e-06
6.42901e-06
2.91034e-06
5.5589e-06
3.16408e-06
4.66069e-06
3.34712e-06
3.74384e-06
3.47671e-06
2.81503e-06
3.56612e-06
1.87901e-06
3.62524e-06
9.38986e-07
3.66101e-06
3.66722e-06
4.02633e-06
-1.3212e-05
7.38948e-06
-1.17299e-05
9.59692e-06
-8.91477e-06
1.08148e-05
-6.11895e-06
1.12806e-05
-3.62474e-06
1.12198e-05
-1.55911e-06
1.0807e-05
8.90078e-08
1.01876e-05
1.30379e-06
9.42249e-06
2.24731e-06
8.56899e-06
2.95203e-06
7.66267e-06
3.47064e-06
6.72604e-06
3.84728e-06
5.77314e-06
4.11726e-06
4.81238e-06
4.30803e-06
3.84852e-06
4.44042e-06
2.88428e-06
4.53002e-06
1.92094e-06
4.58819e-06
9.58666e-07
4.62282e-06
4.62558e-06
5.88856e-06
-1.91007e-05
1.03881e-05
-1.62298e-05
1.27851e-05
-1.13116e-05
1.36926e-05
-7.02657e-06
1.36708e-05
-3.60277e-06
1.30978e-05
-9.85959e-07
1.22816e-05
9.0525e-07
1.12995e-05
2.28588e-06
1.02498e-05
3.2973e-06
9.17689e-06
4.02543e-06
8.10392e-06
4.54392e-06
7.04227e-06
4.90916e-06
5.9966e-06
5.1633e-06
4.96748e-06
5.33742e-06
3.95351e-06
5.4543e-06
2.95248e-06
5.53069e-06
1.96161e-06
5.57864e-06
9.77557e-07
5.60636e-06
5.60286e-06
7.94358e-06
-2.70442e-05
1.5119e-05
-2.34054e-05
1.76101e-05
-1.38027e-05
1.76576e-05
-7.07407e-06
1.66896e-05
-2.63489e-06
1.53462e-05
3.576e-07
1.39262e-05
2.32545e-06
1.24915e-05
3.72068e-06
1.11054e-05
4.68378e-06
9.78538e-06
5.3457e-06
8.53236e-06
5.79722e-06
7.34036e-06
6.10164e-06
6.20085e-06
6.30338e-06
5.10464e-06
6.43383e-06
4.04321e-06
6.5155e-06
3.00885e-06
6.56468e-06
1.99426e-06
6.59288e-06
9.92441e-07
6.60775e-06
6.59506e-06
1.86383e-05
-4.56827e-05
2.54725e-05
-3.024e-05
2.52364e-05
-1.3567e-05
2.28808e-05
-4.71836e-06
2.02058e-05
4.04283e-08
1.78012e-05
2.76251e-06
1.55913e-05
4.53534e-06
1.36305e-05
5.68153e-06
1.18851e-05
6.42944e-06
1.03165e-05
6.91461e-06
8.89027e-06
7.22392e-06
7.57759e-06
7.41503e-06
6.35434e-06
7.52709e-06
5.20087e-06
7.58721e-06
4.10129e-06
7.61476e-06
3.04225e-06
7.62352e-06
2.01197e-06
7.623e-06
9.99947e-07
7.61938e-06
7.59469e-06
1.81019e-06
-4.95827e-05
3.54668e-06
-5.05666e-05
5.29263e-06
-5.05081e-05
7.0115e-06
-5.09759e-05
8.68787e-06
-5.16239e-05
1.03088e-05
-5.24338e-05
1.18598e-05
-5.34059e-05
1.33246e-05
-5.45385e-05
1.4685e-05
-5.58288e-05
1.59208e-05
-5.72716e-05
1.701e-05
-5.886e-05
1.79266e-05
-6.05819e-05
1.86542e-05
-6.2432e-05
1.90915e-05
-6.43389e-05
1.94304e-05
-6.62752e-05
1.82037e-05
-7.41852e-05
-4.31996e-06
2.5845e-05
3.37974e-06
0.000123733
1.4051e-05
0.00012183
2.5221e-05
0.000123339
3.94348e-05
0.000127823
6.27234e-05
0.000132494
0.000143176
0.000115171
1.61524e-06
-5.1198e-05
3.15389e-06
-5.21053e-05
4.70365e-06
-5.20579e-05
6.22585e-06
-5.24981e-05
7.70593e-06
-5.31041e-05
9.1318e-06
-5.38596e-05
1.049e-05
-5.47641e-05
1.17661e-05
-5.58146e-05
1.29441e-05
-5.70067e-05
1.4007e-05
-5.83346e-05
1.49366e-05
-5.97897e-05
1.5714e-05
-6.13593e-05
1.63188e-05
-6.30367e-05
1.67246e-05
-6.47448e-05
1.69876e-05
-6.65381e-05
1.68381e-05
-7.40356e-05
-1.14051e-05
5.40875e-05
2.67135e-06
0.000109656
1.7457e-05
0.000107044
3.30232e-05
0.000107772
5.24472e-05
0.000108398
7.80371e-05
0.000106903
0.000107989
0.000113223
1.4311e-06
-5.26291e-05
2.78485e-06
-5.3459e-05
4.15097e-06
-5.3424e-05
5.49004e-06
-5.38372e-05
6.78852e-06
-5.44026e-05
8.03518e-06
-5.51063e-05
9.21791e-06
-5.59468e-05
1.03239e-05
-5.69205e-05
1.13395e-05
-5.80223e-05
1.22507e-05
-5.92458e-05
1.3043e-05
-6.0582e-05
1.37024e-05
-6.20187e-05
1.42143e-05
-6.35487e-05
1.4572e-05
-6.51025e-05
1.47993e-05
-6.67654e-05
1.46474e-05
-7.38838e-05
-6.3986e-06
7.51339e-05
6.99147e-06
9.62661e-05
2.07789e-05
9.32571e-05
3.51127e-05
9.34384e-05
5.09699e-05
9.25405e-05
6.8849e-05
8.90241e-05
8.37422e-05
9.30958e-05
1.25831e-06
-5.38874e-05
2.43975e-06
-5.46405e-05
3.63471e-06
-5.4619e-05
4.80374e-06
-5.50062e-05
5.93453e-06
-5.55333e-05
7.01674e-06
-5.61884e-05
8.03953e-06
-5.69696e-05
8.99173e-06
-5.78727e-05
9.86188e-06
-5.88925e-05
1.06385e-05
-6.00224e-05
1.13104e-05
-6.12539e-05
1.18674e-05
-6.25758e-05
1.22998e-05
-6.39811e-05
1.26058e-05
-6.54085e-05
1.28032e-05
-6.69628e-05
1.27527e-05
-7.38335e-05
3.03272e-06
8.4854e-05
1.2569e-05
8.67302e-05
2.29335e-05
8.28925e-05
3.39513e-05
8.24204e-05
4.56241e-05
8.08685e-05
5.80382e-05
7.66106e-05
6.95343e-05
7.22457e-05
1.09654e-06
-5.49839e-05
2.1176e-06
-5.56615e-05
3.15309e-06
-5.56545e-05
4.16426e-06
-5.60173e-05
5.13996e-06
-5.65089e-05
6.07087e-06
-5.71193e-05
6.9473e-06
-5.7846e-05
7.75959e-06
-5.8685e-05
8.49806e-06
-5.9631e-05
9.15347e-06
-6.06778e-05
9.71718e-06
-6.18176e-05
1.01822e-05
-6.30408e-05
1.05423e-05
-6.43411e-05
1.07982e-05
-6.56644e-05
1.09653e-05
-6.71299e-05
1.09392e-05
-7.38074e-05
9.1521e-06
8.66413e-05
1.65246e-05
7.93589e-05
2.40935e-05
7.53243e-05
3.22409e-05
7.42738e-05
4.07448e-05
7.23651e-05
4.90671e-05
6.8288e-05
6.20841e-05
5.65169e-05
9.4532e-07
-5.59292e-05
1.8174e-06
-5.65336e-05
2.7041e-06
-5.65412e-05
3.56864e-06
-5.68818e-05
4.40068e-06
-5.7341e-05
5.19192e-06
-5.79105e-05
5.93369e-06
-5.85879e-05
6.6176e-06
-5.93689e-05
7.23545e-06
-6.02488e-05
7.77958e-06
-6.12219e-05
8.24345e-06
-6.22815e-05
8.62238e-06
-6.34198e-05
8.91271e-06
-6.46314e-05
9.1212e-06
-6.58729e-05
9.26064e-06
-6.72693e-05
9.20956e-06
-7.37562e-05
1.34381e-05
8.24129e-05
1.88447e-05
7.39524e-05
2.4309e-05
6.98601e-05
3.01885e-05
6.83945e-05
3.61381e-05
6.64156e-05
4.15476e-05
6.28778e-05
5.78001e-05
4.58311e-05
8.03735e-07
-5.6733e-05
1.5379e-06
-5.72677e-05
2.28542e-06
-5.72887e-05
3.01375e-06
-5.76101e-05
3.71249e-06
-5.80397e-05
4.37426e-06
-5.85723e-05
4.99131e-06
-5.9205e-05
5.55626e-06
-5.99339e-05
6.06213e-06
-6.07547e-05
6.5025e-06
-6.16623e-05
6.87222e-06
-6.26512e-05
7.16752e-06
-6.37151e-05
7.38521e-06
-6.48492e-05
7.54292e-06
-6.60306e-05
7.64844e-06
-6.73748e-05
7.62008e-06
-7.3728e-05
1.49752e-05
7.50584e-05
1.94738e-05
6.94531e-05
2.37037e-05
6.56307e-05
2.79353e-05
6.41629e-05
3.19846e-05
6.23661e-05
3.55025e-05
5.93589e-05
5.51556e-05
3.8147e-05
6.68314e-07
-5.74013e-05
1.27613e-06
-5.78755e-05
1.8938e-06
-5.79064e-05
2.49488e-06
-5.82111e-05
3.06903e-06
-5.86138e-05
3.60991e-06
-5.91132e-05
4.11068e-06
-5.97057e-05
4.56448e-06
-6.03877e-05
4.96497e-06
-6.11552e-05
5.30673e-06
-6.20041e-05
5.58628e-06
-6.29308e-05
5.80115e-06
-6.39299e-05
5.94951e-06
-6.49975e-05
6.05734e-06
-6.61384e-05
6.08337e-06
-6.74008e-05
6.51042e-06
-7.41555e-05
1.538e-05
6.61895e-05
1.94927e-05
6.53393e-05
2.28949e-05
6.22287e-05
2.5856e-05
6.12017e-05
2.84392e-05
5.97826e-05
3.05671e-05
5.72306e-05
5.36513e-05
3.20718e-05
5.52738e-07
-5.79541e-05
1.0361e-06
-5.83588e-05
1.52935e-06
-5.83996e-05
2.00899e-06
-5.86908e-05
2.4662e-06
-5.90711e-05
2.89486e-06
-5.95419e-05
3.28847e-06
-6.00993e-05
3.64e-06
-6.07393e-05
3.94238e-06
-6.14576e-05
4.18928e-06
-6.2251e-05
4.37668e-06
-6.31183e-05
4.50291e-06
-6.40562e-05
4.57427e-06
-6.50688e-05
4.64037e-06
-6.62046e-05
4.39765e-06
-6.7158e-05
6.60059e-06
-7.63584e-05
1.56518e-05
5.71383e-05
1.9967e-05
6.10242e-05
2.25343e-05
5.96611e-05
2.42016e-05
5.95343e-05
2.54279e-05
5.85561e-05
2.63452e-05
5.63127e-05
5.30645e-05
2.69311e-05
4.62146e-07
-5.84162e-05
8.12208e-07
-5.87089e-05
1.19688e-06
-5.87843e-05
1.56764e-06
-5.90615e-05
1.92228e-06
-5.94257e-05
2.25315e-06
-5.98727e-05
2.55391e-06
-6.04001e-05
2.81796e-06
-6.10034e-05
3.03735e-06
-6.16771e-05
3.20206e-06
-6.24157e-05
3.29831e-06
-6.32145e-05
3.30782e-06
-6.40657e-05
3.20326e-06
-6.49641e-05
3.09713e-06
-6.60985e-05
2.16864e-06
-6.62294e-05
3.69804e-06
-7.78875e-05
1.62698e-05
4.45664e-05
2.17761e-05
5.5518e-05
2.30559e-05
5.83801e-05
2.3055e-05
5.95349e-05
2.27794e-05
5.88317e-05
2.25036e-05
5.65884e-05
5.32892e-05
2.22784e-05
3.51142e-07
-5.87673e-05
6.09888e-07
-5.89676e-05
9.24353e-07
-5.90988e-05
1.21578e-06
-5.93529e-05
1.4921e-06
-5.9702e-05
1.74946e-06
-6.01301e-05
1.98257e-06
-6.06333e-05
2.18517e-06
-6.1206e-05
2.34926e-06
-6.18411e-05
2.4627e-06
-6.25292e-05
2.50431e-06
-6.32561e-05
2.43997e-06
-6.40013e-05
2.12054e-06
-6.46446e-05
1.44141e-06
-6.54194e-05
-7.63529e-07
-6.40244e-05
-4.62276e-06
-7.40287e-05
2.06015e-05
1.93424e-05
2.7113e-05
4.90057e-05
2.5169e-05
6.03228e-05
2.23912e-05
6.23111e-05
2.01573e-05
6.10646e-05
1.86153e-05
5.81298e-05
5.42381e-05
1.76659e-05
2.85826e-07
-5.90532e-05
4.97882e-07
-5.91797e-05
7.20547e-07
-5.93214e-05
9.47203e-07
-5.95796e-05
1.16338e-06
-5.99181e-05
1.36629e-06
-6.0333e-05
1.55046e-06
-6.08175e-05
1.70797e-06
-6.13636e-05
1.82818e-06
-6.19614e-05
1.89454e-06
-6.25955e-05
1.89136e-06
-6.32529e-05
1.81593e-06
-6.39259e-05
1.66574e-06
-6.44944e-05
1.27103e-06
-6.50247e-05
5.76133e-06
-6.85147e-05
-4.03615e-07
-6.78636e-05
3.32921e-05
-1.43549e-05
3.80186e-05
4.42797e-05
2.83659e-05
6.99759e-05
2.13523e-05
6.93246e-05
1.67456e-05
6.56713e-05
1.40486e-05
6.08267e-05
5.56605e-05
1.26262e-05
8.79913e-08
-5.91412e-05
1.71694e-07
-5.92634e-05
2.65452e-07
-5.94152e-05
3.45886e-07
-5.966e-05
4.14213e-07
-5.99864e-05
4.68171e-07
-6.0387e-05
5.03923e-07
-6.08532e-05
5.15478e-07
-6.13751e-05
4.93959e-07
-6.19399e-05
4.32421e-07
-6.25338e-05
3.34491e-07
-6.3155e-05
1.52588e-07
-6.3744e-05
1.24945e-06
-6.55911e-05
3.12689e-06
-6.69023e-05
2.20259e-05
-8.74136e-05
3.07206e-05
-7.65581e-05
5.20849e-05
-3.57203e-05
4.86831e-05
4.76807e-05
3.28271e-05
8.5832e-05
1.87367e-05
8.3415e-05
1.13508e-05
7.30573e-05
8.02028e-06
6.41571e-05
5.70119e-05
6.66925e-06
-5.49598e-07
-5.85916e-05
-1.3335e-06
-5.84795e-05
-1.95297e-06
-5.87959e-05
-2.64572e-06
-5.89672e-05
-3.36911e-06
-5.9263e-05
-4.12464e-06
-5.96315e-05
-4.90677e-06
-6.00713e-05
-5.69899e-06
-6.05829e-05
-6.4596e-06
-6.11794e-05
-7.01577e-06
-6.19778e-05
-7.24381e-06
-6.2927e-05
-7.22378e-06
-6.37642e-05
-2.13086e-06
-7.06839e-05
1.3888e-05
-8.29209e-05
1.89328e-05
-9.24582e-05
4.82296e-05
-0.000105855
3.75117e-05
-2.50023e-05
4.56308e-05
3.95616e-05
2.66745e-05
0.000104789
8.80707e-06
0.000101283
1.86098e-06
8.00035e-05
-3.57986e-07
6.63761e-05
5.71923e-05
-5.3799e-07
-2.68894e-06
-5.59023e-05
-5.27032e-06
-5.58992e-05
-7.9739e-06
-5.60926e-05
-1.07076e-05
-5.62343e-05
-1.35028e-05
-5.64683e-05
-1.63484e-05
-5.67863e-05
-1.92099e-05
-5.72087e-05
-2.20049e-05
-5.7787e-05
-2.45403e-05
-5.86433e-05
-2.65608e-05
-5.99575e-05
-2.75905e-05
-6.18973e-05
-2.52532e-05
-6.61012e-05
-1.94193e-05
-7.6518e-05
-9.17364e-06
-9.31672e-05
1.01249e-06
-0.000102645
-1.8564e-06
-0.000102987
-1.06744e-05
-1.61844e-05
-2.59846e-05
5.48718e-05
-2.44368e-05
0.000103241
-1.82227e-05
9.50689e-05
-1.44574e-05
7.62388e-05
-1.15558e-05
6.34751e-05
5.45266e-05
-8.88987e-06
-2.81645e-06
-5.30853e-05
-5.26533e-06
-5.34502e-05
-7.88884e-06
-5.3469e-05
-1.05593e-05
-5.35629e-05
-1.33171e-05
-5.37112e-05
-1.61739e-05
-5.393e-05
-1.91419e-05
-5.42422e-05
-2.22367e-05
-5.46945e-05
-2.55098e-05
-5.53699e-05
-2.91042e-05
-5.63639e-05
-3.29779e-05
-5.80251e-05
-3.79882e-05
-6.10917e-05
-4.88562e-05
-6.56507e-05
-6.82968e-05
-7.37273e-05
-8.69995e-05
-8.39426e-05
-0.000118343
-7.16429e-05
-0.000119729
-1.47985e-05
-0.000104481
3.96241e-05
-7.23992e-05
7.11592e-05
-4.66509e-05
6.93208e-05
-3.20963e-05
6.16848e-05
-2.32222e-05
5.46017e-05
4.85412e-05
-1.72364e-05
-2.72752e-06
-5.03586e-05
-5.40281e-06
-5.07747e-05
-8.11657e-06
-5.07559e-05
-1.08964e-05
-5.07838e-05
-1.37709e-05
-5.08363e-05
-1.6776e-05
-5.09247e-05
-1.99519e-05
-5.1066e-05
-2.33589e-05
-5.12868e-05
-2.71092e-05
-5.16197e-05
-3.1358e-05
-5.2115e-05
-3.64718e-05
-5.29118e-05
-4.36922e-05
-5.38718e-05
-5.45827e-05
-5.47608e-05
-7.11388e-05
-5.71717e-05
-9.74897e-05
-5.75921e-05
-0.00012567
-4.34626e-05
-0.000128094
-1.23742e-05
-0.000111697
2.32275e-05
-8.20829e-05
4.15456e-05
-5.8269e-05
4.55075e-05
-4.22086e-05
4.56249e-05
-3.1271e-05
4.36647e-05
4.09015e-05
-2.36308e-05
-2.68913e-06
-4.76699e-05
-5.41202e-06
-4.80531e-05
-8.15141e-06
-4.80157e-05
-1.09704e-05
-4.79654e-05
-1.38962e-05
-4.79095e-05
-1.69716e-05
-4.78495e-05
-2.02521e-05
-4.77877e-05
-2.38133e-05
-4.77246e-05
-2.77784e-05
-4.76548e-05
-3.23179e-05
-4.75756e-05
-3.77588e-05
-4.74705e-05
-4.45649e-05
-4.70654e-05
-5.31077e-05
-4.62179e-05
-6.53304e-05
-4.49491e-05
-8.27008e-05
-4.02214e-05
-9.82332e-05
-2.793e-05
-0.000101336
-9.27156e-06
-8.86702e-05
1.05627e-05
-7.12752e-05
2.41513e-05
-5.63231e-05
3.0556e-05
-4.4154e-05
3.34562e-05
-3.46031e-05
3.41143e-05
3.35287e-05
-2.72299e-05
-2.66168e-06
-4.50078e-05
-5.36689e-06
-4.53494e-05
-8.10858e-06
-4.52747e-05
-1.09252e-05
-4.51503e-05
-1.38493e-05
-4.49845e-05
-1.69244e-05
-4.47733e-05
-2.0205e-05
-4.45069e-05
-2.37629e-05
-4.41671e-05
-2.76939e-05
-4.3724e-05
-3.21373e-05
-4.3132e-05
-3.73214e-05
-4.22862e-05
-4.34162e-05
-4.09705e-05
-5.05908e-05
-3.90432e-05
-5.94793e-05
-3.60601e-05
-6.93403e-05
-3.03599e-05
-7.65899e-05
-2.068e-05
-7.77402e-05
-8.12085e-06
-7.14953e-05
4.31828e-06
-6.1543e-05
1.41995e-05
-5.16688e-05
2.06823e-05
-4.27261e-05
2.45139e-05
-3.50518e-05
2.64404e-05
2.71243e-05
-2.86472e-05
-2.61821e-06
-4.23891e-05
-5.26871e-06
-4.26985e-05
-7.96971e-06
-4.25732e-05
-1.07388e-05
-4.23818e-05
-1.36075e-05
-4.21163e-05
-1.66142e-05
-4.17672e-05
-1.98019e-05
-4.13173e-05
-2.32285e-05
-4.07407e-05
-2.69585e-05
-3.99935e-05
-3.10796e-05
-3.90105e-05
-3.5686e-05
-3.76795e-05
-4.08151e-05
-3.58412e-05
-4.65364e-05
-3.33216e-05
-5.28783e-05
-2.97179e-05
-5.89166e-05
-2.43211e-05
-6.27644e-05
-1.68317e-05
-6.29339e-05
-7.95088e-06
-5.9457e-05
8.4165e-07
-5.35646e-05
8.30731e-06
-4.68383e-05
1.39565e-05
-4.01916e-05
1.78675e-05
-3.40927e-05
2.03417e-05
2.17406e-05
-2.87089e-05
-2.54599e-06
-3.98441e-05
-5.12404e-06
-4.01212e-05
-7.74599e-06
-3.99516e-05
-1.04292e-05
-3.96985e-05
-1.3199e-05
-3.93469e-05
-1.60839e-05
-3.88823e-05
-1.91167e-05
-3.82847e-05
-2.23332e-05
-3.75243e-05
-2.5771e-05
-3.65553e-05
-2.94693e-05
-3.53119e-05
-3.34489e-05
-3.36995e-05
-3.76888e-05
-3.16008e-05
-4.21419e-05
-2.88684e-05
-4.66055e-05
-2.5254e-05
-5.04412e-05
-2.0485e-05
-5.2712e-05
-1.45607e-05
-5.27235e-05
-7.9392e-06
-5.05301e-05
-1.35154e-06
-4.6721e-05
4.49839e-06
-4.20606e-05
9.29633e-06
-3.71418e-05
1.29487e-05
-3.23586e-05
1.55586e-05
1.7307e-05
-2.79248e-05
-2.44471e-06
-3.73996e-05
-4.92974e-06
-3.76357e-05
-7.44587e-06
-3.74354e-05
-1.00137e-05
-3.71309e-05
-1.26514e-05
-3.67094e-05
-1.53772e-05
-3.61553e-05
-1.82138e-05
-3.54491e-05
-2.1177e-05
-3.45605e-05
-2.42833e-05
-3.34488e-05
-2.75376e-05
-3.20578e-05
-3.09228e-05
-3.03142e-05
-3.43884e-05
-2.81349e-05
-3.78363e-05
-2.54201e-05
-4.10462e-05
-2.20437e-05
-4.36105e-05
-1.79207e-05
-4.50442e-05
-1.31272e-05
-4.5027e-05
-7.95624e-06
-4.35709e-05
-2.80752e-06
-4.09809e-05
1.90839e-06
-3.76569e-05
5.97227e-06
-3.39807e-05
9.27247e-06
-3.02417e-05
1.18198e-05
1.36974e-05
-2.66318e-05
-2.32332e-06
-3.50774e-05
-4.692e-06
-3.52673e-05
-7.08316e-06
-3.50446e-05
-9.51395e-06
-3.47008e-05
-1.19955e-05
-3.42277e-05
-1.45398e-05
-3.36114e-05
-1.71561e-05
-3.28329e-05
-1.98499e-05
-3.1866e-05
-2.2621e-05
-3.06779e-05
-2.54549e-05
-2.9224e-05
-2.83169e-05
-2.74518e-05
-3.11451e-05
-2.53063e-05
-3.38352e-05
-2.27299e-05
-3.62098e-05
-1.96691e-05
-3.80156e-05
-1.61149e-05
-3.89909e-05
-1.21521e-05
-3.89764e-05
-7.97079e-06
-3.79667e-05
-3.81716e-06
-3.61416e-05
8.31729e-08
-3.37115e-05
3.54207e-06
-3.09266e-05
6.48776e-06
-2.79927e-05
8.88632e-06
1.07695e-05
-2.50643e-05
-2.19046e-06
-3.28872e-05
-4.42393e-06
-3.30336e-05
-6.67561e-06
-3.27928e-05
-8.95439e-06
-3.24219e-05
-1.12664e-05
-3.19154e-05
-1.36169e-05
-3.12619e-05
-1.60057e-05
-3.04434e-05
-1.84321e-05
-2.94398e-05
-2.08848e-05
-2.82254e-05
-2.33403e-05
-2.67681e-05
-2.57589e-05
-2.50329e-05
-2.80789e-05
-2.29863e-05
-3.02091e-05
-2.05998e-05
-3.20198e-05
-1.78584e-05
-3.33527e-05
-1.47819e-05
-3.40608e-05
-1.14441e-05
-3.40584e-05
-7.9733e-06
-3.33468e-05
-4.52885e-06
-3.20165e-05
-1.24713e-06
-3.02032e-05
1.729e-06
-2.80655e-05
4.35048e-06
-2.5749e-05
6.57029e-06
8.39368e-06
-2.33725e-05
-2.05231e-06
-3.08353e-05
-4.14009e-06
-3.09463e-05
-6.24229e-06
-3.06909e-05
-8.36012e-06
-3.03033e-05
-1.04967e-05
-2.97796e-05
-1.26496e-05
-2.91088e-05
-1.48154e-05
-2.82769e-05
-1.69873e-05
-2.72684e-05
-1.91485e-05
-2.60642e-05
-2.12732e-05
-2.4643e-05
-2.33228e-05
-2.29834e-05
-2.52421e-05
-2.10671e-05
-2.69581e-05
-1.88837e-05
-2.83792e-05
-1.64372e-05
-2.94051e-05
-1.37559e-05
-2.99493e-05
-1.08999e-05
-2.99634e-05
-7.95927e-06
-2.94523e-05
-5.03974e-06
-2.8458e-05
-2.24121e-06
-2.70853e-05
3.56763e-07
-2.54242e-05
2.68988e-06
-2.35817e-05
4.72851e-06
6.46089e-06
-2.16481e-05
-1.9127e-06
-2.89222e-05
-3.85076e-06
-2.9008e-05
-5.79789e-06
-2.87434e-05
-7.75202e-06
-2.83489e-05
-9.71143e-06
-2.78207e-05
-1.16704e-05
-2.71489e-05
-1.36238e-05
-2.63239e-05
-1.55596e-05
-2.53333e-05
-1.74596e-05
-2.41639e-05
-1.92995e-05
-2.28031e-05
-2.10442e-05
-2.1239e-05
-2.26472e-05
-1.9464e-05
-2.40528e-05
-1.7478e-05
-2.51967e-05
-1.52933e-05
-2.6014e-05
-1.29386e-05
-2.64516e-05
-1.04621e-05
-2.64818e-05
-7.92888e-06
-2.61088e-05
-5.41241e-06
-2.53634e-05
-2.98614e-06
-2.4307e-05
-6.99158e-07
-2.30008e-05
1.38435e-06
-2.15244e-05
3.25289e-06
4.88276e-06
-1.99454e-05
-1.77297e-06
-2.71492e-05
-3.56164e-06
-2.72192e-05
-5.3528e-06
-2.69514e-05
-7.14394e-06
-2.65586e-05
-8.92874e-06
-2.60356e-05
-1.07022e-05
-2.53756e-05
-1.2456e-05
-2.45712e-05
-1.41759e-05
-2.36134e-05
-1.58452e-05
-2.24944e-05
-1.74413e-05
-2.12073e-05
-1.89338e-05
-1.9747e-05
-2.02854e-05
-1.81123e-05
-2.14542e-05
-1.63091e-05
-2.23951e-05
-1.43524e-05
-2.3065e-05
-1.22687e-05
-2.34307e-05
-1.00962e-05
-2.34758e-05
-7.88353e-06
-2.32037e-05
-5.68416e-06
-2.26387e-05
-3.55081e-06
-2.18099e-05
-1.5274e-06
-2.07788e-05
3.53942e-07
-1.95889e-05
2.06368e-06
3.58927e-06
-1.82947e-05
-1.63343e-06
-2.55156e-05
-3.27464e-06
-2.55775e-05
-4.91314e-06
-2.53132e-05
-6.544e-06
-2.49283e-05
-8.16108e-06
-2.44181e-05
-9.75904e-06
-2.37786e-05
-1.1327e-05
-2.30038e-05
-1.28519e-05
-2.20883e-05
-1.43183e-05
-2.10283e-05
-1.57057e-05
-1.98206e-05
-1.69887e-05
-1.84645e-05
-1.81382e-05
-1.69628e-05
-1.91228e-05
-1.53245e-05
-1.99105e-05
-1.35648e-05
-2.04722e-05
-1.1707e-05
-2.07864e-05
-9.78191e-06
-2.08431e-05
-7.82667e-06
-2.06457e-05
-5.88135e-06
-2.0211e-05
-3.98519e-06
-1.95638e-05
-2.17418e-06
-1.87415e-05
-4.67814e-07
-1.77761e-05
1.09878e-06
2.5249e-06
-1.67114e-05
-1.49458e-06
-2.40211e-05
-2.99185e-06
-2.40799e-05
-4.48171e-06
-2.38241e-05
-5.95788e-06
-2.34517e-05
-7.41618e-06
-2.29602e-05
-8.84912e-06
-2.23466e-05
-1.0246e-05
-2.16069e-05
-1.15958e-05
-2.0739e-05
-1.28837e-05
-1.97414e-05
-1.40917e-05
-1.86133e-05
-1.51993e-05
-1.73571e-05
-1.6184e-05
-1.59782e-05
-1.70223e-05
-1.44863e-05
-1.76911e-05
-1.28962e-05
-1.81704e-05
-1.12279e-05
-1.8446e-05
-9.50636e-06
-1.85119e-05
-7.76074e-06
-1.83713e-05
-6.02184e-06
-1.80362e-05
-4.32006e-06
-1.7527e-05
-2.68309e-06
-1.68619e-05
-1.13261e-06
-1.60791e-05
3.16139e-07
1.64712e-06
-1.52012e-05
-1.35721e-06
-2.26635e-05
-2.71487e-06
-2.27227e-05
-4.0606e-06
-2.24783e-05
-5.39018e-06
-2.2122e-05
-6.6987e-06
-2.16526e-05
-7.97775e-06
-2.10679e-05
-9.21849e-06
-2.03664e-05
-1.04108e-05
-1.95478e-05
-1.15409e-05
-1.8612e-05
-1.25938e-05
-1.75607e-05
-1.35532e-05
-1.63978e-05
-1.44016e-05
-1.513e-05
-1.51212e-05
-1.37672e-05
-1.5695e-05
-1.23227e-05
-1.61091e-05
-1.08139e-05
-1.63542e-05
-9.26139e-06
-1.64264e-05
-7.68853e-06
-1.63286e-05
-6.11967e-06
-1.60697e-05
-4.57881e-06
-1.56646e-05
-3.088e-06
-1.51306e-05
-1.66662e-06
-1.44915e-05
-3.22886e-07
9.20803e-07
-1.37652e-05
-1.22301e-06
-2.14405e-05
-2.44489e-06
-2.15013e-05
-3.65297e-06
-2.12699e-05
-4.84398e-06
-2.09317e-05
-6.01146e-06
-2.04857e-05
-7.14816e-06
-1.99311e-05
-8.24648e-06
-1.92685e-05
-9.29667e-06
-1.84985e-05
-1.02868e-05
-1.76222e-05
-1.12047e-05
-1.66428e-05
-1.20374e-05
-1.55653e-05
-1.2771e-05
-1.43968e-05
-1.33919e-05
-1.31466e-05
-1.38876e-05
-1.1827e-05
-1.42485e-05
-1.0453e-05
-1.4468e-05
-9.04189e-06
-1.4544e-05
-7.61265e-06
-1.44787e-05
-6.18497e-06
-1.42793e-05
-4.77818e-06
-1.39569e-05
-3.41034e-06
-1.35263e-05
-2.09724e-06
-1.29989e-05
-8.50408e-07
3.21784e-07
-1.23999e-05
-1.09303e-06
-2.03479e-05
-2.18375e-06
-2.04101e-05
-3.26133e-06
-2.01925e-05
-4.32087e-06
-1.98725e-05
-5.35632e-06
-1.945e-05
-6.36172e-06
-1.89259e-05
-7.32961e-06
-1.83012e-05
-8.25108e-06
-1.75773e-05
-9.11649e-06
-1.67567e-05
-9.91584e-06
-1.58435e-05
-1.06386e-05
-1.48429e-05
-1.12737e-05
-1.3762e-05
-1.18107e-05
-1.26096e-05
-1.22406e-05
-1.1397e-05
-1.25563e-05
-1.01372e-05
-1.27535e-05
-8.84483e-06
-1.28306e-05
-7.53566e-06
-1.27897e-05
-6.22589e-06
-1.26364e-05
-4.93148e-06
-1.23793e-05
-3.66745e-06
-1.20294e-05
-2.44714e-06
-1.1598e-05
-1.28194e-06
-1.73218e-07
-1.11032e-05
-9.67643e-07
-1.93801e-05
-1.93339e-06
-1.94438e-05
-2.88674e-06
-1.92394e-05
-3.82192e-06
-1.89369e-05
-4.73426e-06
-1.85375e-05
-5.61798e-06
-1.80427e-05
-6.4658e-06
-1.74537e-05
-7.27028e-06
-1.67727e-05
-8.02372e-06
-1.60033e-05
-8.71777e-06
-1.51496e-05
-9.34364e-06
-1.42173e-05
-9.89266e-06
-1.32129e-05
-1.03569e-05
-1.21452e-05
-1.07298e-05
-1.1024e-05
-1.10062e-05
-9.86094e-06
-1.11827e-05
-8.66846e-06
-1.12587e-05
-7.45987e-06
-1.12358e-05
-6.24879e-06
-1.11186e-05
-5.04865e-06
-1.09139e-05
-3.87215e-06
-1.06304e-05
-2.73077e-06
-1.02784e-05
-1.63411e-06
-5.87947e-07
-9.86404e-06
-8.47705e-07
-1.85319e-05
-1.69465e-06
-1.8597e-05
-2.52958e-06
-1.84044e-05
-3.34771e-06
-1.81185e-05
-4.14481e-06
-1.77409e-05
-4.91495e-06
-1.72729e-05
-5.65183e-06
-1.67166e-05
-6.34947e-06
-1.60749e-05
-7.00147e-06
-1.53515e-05
-7.60068e-06
-1.45507e-05
-8.13993e-06
-1.36781e-05
-8.61253e-06
-1.27402e-05
-9.01252e-06
-1.17451e-05
-9.33487e-06
-1.07018e-05
-9.5757e-06
-9.62039e-06
-9.73268e-06
-8.51176e-06
-9.80537e-06
-7.38735e-06
-9.79537e-06
-6.25885e-06
-9.70627e-06
-5.13779e-06
-9.54344e-06
-4.03508e-06
-9.31371e-06
-2.96071e-06
-9.02493e-06
-1.92319e-06
-9.2888e-07
-8.68433e-06
-7.33844e-07
-1.77981e-05
-1.46728e-06
-1.78638e-05
-2.18983e-06
-1.76818e-05
-2.89759e-06
-1.74109e-05
-3.58598e-06
-1.70527e-05
-4.24973e-06
-1.6609e-05
-4.88377e-06
-1.60822e-05
-5.48308e-06
-1.54756e-05
-6.04209e-06
-1.47928e-05
-6.55482e-06
-1.40382e-05
-7.01561e-06
-1.32173e-05
-7.41933e-06
-1.23365e-05
-7.7614e-06
-1.14032e-05
-8.03791e-06
-1.04256e-05
-8.24591e-06
-9.41276e-06
-8.38377e-06
-8.37419e-06
-8.45137e-06
-7.31997e-06
-8.4501e-06
-6.26031e-06
-8.38284e-06
-5.20526e-06
-8.25383e-06
-4.16435e-06
-8.06846e-06
-3.14636e-06
-7.83295e-06
-2.15898e-06
-1.20818e-06
-7.55391e-06
-6.25572e-07
-1.71728e-05
-1.25064e-06
-1.72386e-05
-1.86666e-06
-1.70658e-05
-2.4696e-06
-1.6808e-05
-3.05511e-06
-1.64669e-05
-3.61901e-06
-1.60447e-05
-4.15715e-06
-1.5544e-05
-4.66501e-06
-1.49679e-05
-5.13779e-06
-1.43202e-05
-5.57077e-06
-1.36053e-05
-5.95961e-06
-1.28284e-05
-6.30029e-06
-1.1996e-05
-6.5892e-06
-1.11146e-05
-6.82325e-06
-1.0192e-05
-7.0003e-06
-9.23606e-06
-7.11926e-06
-8.25551e-06
-7.18019e-06
-7.25933e-06
-7.1843e-06
-6.25656e-06
-7.13385e-06
-5.25608e-06
-7.03219e-06
-4.26635e-06
-6.8836e-06
-3.29521e-06
-6.69308e-06
-2.34967e-06
-1.43522e-06
-6.46617e-06
-5.2206e-07
-1.66507e-05
-1.04396e-06
-1.67165e-05
-1.55838e-06
-1.65514e-05
-2.06136e-06
-1.63047e-05
-2.54938e-06
-1.59785e-05
-3.01914e-06
-1.55748e-05
-3.46693e-06
-1.50964e-05