/*--------------------------------*- C++ -*----------------------------------*\
| =========                 |                                                 |
| \\      /  F ield         | OpenFOAM: The Open Source CFD Toolbox           |
|  \\    /   O peration     | Version:  2206                                  |
|   \\  /    A nd           | Website:  www.openfoam.com                      |
|    \\/     M anipulation  |                                                 |
\*---------------------------------------------------------------------------*/
FoamFile
{
    version     2.0;
    format      ascii;
    arch        "LSB;label=32;scalar=64";
    class       surfaceScalarField;
    location    "0.65";
    object      alphaPhi0.water;
}
// * * * * * * * * * * * * * * * * * * * * * * * * * * * * * * * * * * * * * //

dimensions      [0 3 -1 0 0 0 0];

oriented        oriented;

internalField   nonuniform List<scalar> 
4432
(
-3.33836e-06
3.33836e-06
-6.51129e-06
3.17293e-06
-8.03211e-06
1.52083e-06
-8.42802e-06
3.95914e-07
-7.71913e-06
-7.08899e-07
-5.58229e-06
-2.13684e-06
-2.32004e-06
-3.26225e-06
8.3841e-07
-3.15845e-06
2.89584e-06
-2.05742e-06
3.61253e-06
-7.16693e-07
3.15281e-06
4.59741e-07
1.78351e-06
1.36928e-06
-1.62781e-07
1.94631e-06
-2.54116e-06
2.37837e-06
-5.51457e-06
2.97341e-06
-9.11011e-06
3.59556e-06
-1.26267e-05
3.57305e-06
-1.42819e-05
2.48958e-06
-1.82875e-05
3.49298e-06
-2.49541e-05
5.69017e-06
-2.61426e-05
1.18929e-06
-1.62372e-05
-9.90522e-06
-1.62371e-05
-4.07235e-06
7.41071e-06
-6.5594e-06
5.66e-06
-7.53941e-06
2.50084e-06
-8.06239e-06
9.18897e-07
-7.7194e-06
-1.05189e-06
-5.80605e-06
-4.05019e-06
-2.50502e-06
-6.56327e-06
8.18285e-07
-6.48176e-06
2.99036e-06
-4.22947e-06
3.81045e-06
-1.5368e-06
3.67605e-06
5.94171e-07
3.0021e-06
2.0432e-06
1.95231e-06
2.99612e-06
6.19996e-07
3.71067e-06
-1.0834e-06
4.67681e-06
-3.65056e-06
6.16273e-06
-7.69478e-06
7.61741e-06
-1.2816e-05
8.19035e-06
-1.81785e-05
9.26697e-06
-2.15067e-05
8.99713e-06
-1.97621e-05
-9.83419e-07
-1.19147e-05
-1.72508e-05
-2.81516e-05
-3.14718e-06
1.05579e-05
-5.08425e-06
7.59707e-06
-6.26734e-06
3.68393e-06
-7.33181e-06
1.98337e-06
-7.54834e-06
-8.35362e-07
-5.98667e-06
-5.61186e-06
-2.85164e-06
-9.6983e-06
4.42912e-07
-9.77632e-06
2.63601e-06
-6.42255e-06
3.39276e-06
-2.29357e-06
3.09481e-06
8.92142e-07
2.24171e-06
2.89628e-06
1.21515e-06
4.02269e-06
3.03806e-07
4.62201e-06
-3.60565e-07
5.34118e-06
-8.46148e-07
6.64832e-06
-1.87634e-06
8.64758e-06
-4.43755e-06
1.07518e-05
-7.42987e-06
1.29505e-05
-9.30219e-06
1.08482e-05
-8.76277e-06
-1.54404e-06
-5.22024e-06
-2.08139e-05
-3.33718e-05
-1.71911e-06
1.2277e-05
-2.90567e-06
8.78363e-06
-4.04797e-06
4.82623e-06
-5.08608e-06
3.02149e-06
-5.23637e-06
-6.85075e-07
-3.88777e-06
-6.96045e-06
-1.59703e-06
-1.1989e-05
7.16974e-07
-1.20903e-05
2.2841e-06
-7.98965e-06
2.77059e-06
-2.78009e-06
2.34994e-06
1.31282e-06
1.40621e-06
3.83998e-06
3.06442e-07
5.12247e-06
-5.7732e-07
5.50576e-06
-1.16496e-06
5.9288e-06
-1.12039e-06
6.60377e-06
-2.9884e-07
7.82603e-06
6.29246e-07
9.82374e-06
1.72406e-06
1.1856e-05
2.60721e-06
1.03287e-05
1.87603e-06
-8.24388e-07
1.61176e-06
-2.16089e-05
-3.18205e-05
1.40929e-07
1.21361e-05
3.45077e-07
8.57949e-06
-1.32585e-07
5.30389e-06
-1.76295e-07
3.0652e-06
7.5078e-07
-1.61215e-06
1.90928e-06
-8.11895e-06
2.5362e-06
-1.26159e-05
2.69448e-06
-1.22486e-05
2.50995e-06
-7.80511e-06
2.11707e-06
-2.38722e-06
1.43097e-06
1.99894e-06
4.74435e-07
4.79649e-06
-4.96597e-07
6.09351e-06
-1.28538e-06
6.29454e-06
-1.76245e-06
6.40585e-06
-1.79883e-06
6.64017e-06
-8.90336e-07
6.91751e-06
1.2353e-06
7.69811e-06
4.82663e-06
8.2647e-06
8.34429e-06
6.81098e-06
8.36775e-06
-1.15459e-06
5.20643e-06
-1.84477e-05
-2.66142e-05
2.63127e-06
9.50482e-06
4.80503e-06
6.40574e-06
6.23264e-06
3.87628e-06
8.0385e-06
1.25934e-06
9.99898e-06
-3.57263e-06
1.04234e-05
-8.54338e-06
8.83254e-06
-1.10251e-05
6.2069e-06
-9.62298e-06
3.61703e-06
-5.21522e-06
1.75111e-06
-5.21332e-07
4.80731e-07
3.26933e-06
-5.63243e-07
5.84045e-06
-1.45186e-06
6.98212e-06
-1.99437e-06
6.83705e-06
-2.23769e-06
6.64916e-06
-2.1492e-06
6.55168e-06
-1.48147e-06
6.24976e-06
2.59994e-07
5.95666e-06
3.51913e-06
5.00556e-06
7.45959e-06
2.87052e-06
8.90555e-06
-2.60054e-06
5.8011e-06
-1.53433e-05
-2.08129e-05
4.68907e-06
4.81575e-06
9.70571e-06
1.38911e-06
1.445e-05
-8.68049e-07
1.87604e-05
-3.05098e-06
2.04717e-05
-5.28427e-06
1.85102e-05
-6.58219e-06
1.4147e-05
-6.66193e-06
9.34255e-06
-4.81855e-06
5.04508e-06
-9.17745e-07
1.86559e-06
2.65814e-06
-2.23888e-07
5.35882e-06
-1.62589e-06
7.24244e-06
-2.48347e-06
7.83969e-06
-2.73451e-06
7.08809e-06
-2.70336e-06
6.61799e-06
-2.44691e-06
6.29523e-06
-1.78477e-06
5.58761e-06
-4.22744e-07
4.59463e-06
1.63894e-06
2.94387e-06
4.50193e-06
7.543e-09
6.09835e-06
-4.19696e-06
4.64596e-06
-1.38909e-05
-1.61672e-05
8.26386e-06
-2.96052e-06
1.67846e-05
-6.23423e-06
2.23666e-05
-5.59334e-06
2.48002e-05
-4.49586e-06
2.33846e-05
-2.89157e-06
1.91417e-05
-1.27853e-06
1.41379e-05
-6.90173e-07
9.33333e-06
1.08195e-07
5.40029e-06
3.01529e-06
2.35757e-06
5.70086e-06
-1.63081e-07
7.87947e-06
-2.15363e-06
9.23298e-06
-3.39402e-06
9.08007e-06
-3.55159e-06
7.24565e-06
-3.32823e-06
6.39462e-06
-2.88659e-06
5.85359e-06
-2.0818e-06
4.78281e-06
-7.55732e-07
3.26857e-06
7.30607e-07
1.45753e-06
2.36208e-06
-1.62393e-06
3.34327e-06
-5.17814e-06
2.83962e-06
-1.33872e-05
-1.33283e-05
1.83899e-06
-2.02446e-06
9.45376e-07
7.18815e-07
-1.5761e-05
1.46023e-05
-6.3586e-05
4.78254e-05
-0.000109592
4.60065e-05
-0.000137275
2.76835e-05
-0.000151177
1.39033e-05
-0.000158638
7.46514e-06
-0.000162221
3.59405e-06
-0.000161488
-7.12941e-07
-0.000156302
-5.11551e-06
-0.000147885
-8.34293e-06
-0.000138117
-9.69866e-06
-0.00012626
-1.17878e-05
-0.00011091
-1.52758e-05
-8.63419e-05
-2.44885e-05
-4.47198e-05
-4.15118e-05
-1.18474e-06
-4.33413e-05
-1.32426e-06
-2.38497e-07
-8.5768e-07
-2.29979e-05
1.6051e-05
-9.68817e-05
7.4617e-05
-0.000146019
9.69633e-05
-0.000162204
6.21921e-05
-0.000164634
1.88702e-05
-0.000157965
5.27762e-06
-0.000150058
1.07914e-06
-0.000144014
-8.80997e-07
-0.000141655
-2.3947e-06
-0.000144184
-4.9591e-06
-0.000144722
-9.43552e-06
-0.000142237
-1.27092e-05
-0.000134715
-1.92215e-05
-0.000122293
-2.76249e-05
-0.00010354
-4.31698e-05
-6.92325e-05
-7.57833e-05
-2.59317e-05
-8.6639e-05
-2.7252e-05
-3.73996e-06
3.18057e-06
-5.63584e-05
5.76107e-05
-9.62898e-05
0.000102066
-7.08778e-05
5.89201e-05
-3.04777e-05
9.69356e-06
-1.77193e-05
1.87995e-06
-1.38674e-05
5.19408e-09
-1.25369e-05
-4.11701e-09
-1.28343e-05
-2.54576e-08
-1.44733e-05
-7.9357e-07
-2.0278e-05
-2.29476e-06
-3.13006e-05
-2.49113e-06
-4.58457e-05
-7.3832e-07
-6.04085e-05
-1.42136e-06
-7.58314e-05
-5.55685e-06
-9.51729e-05
-2.0943e-05
-7.81757e-05
-9.25798e-05
-4.01521e-05
-0.000124659
-6.74007e-05
-1.49338e-05
1.06347e-05
-5.57373e-05
7.67265e-05
-4.27373e-05
8.57025e-05
-8.97603e-06
2.12547e-05
-4.1199e-06
4.33039e-06
-3.68376e-06
1.18775e-06
-4.24073e-06
3.52373e-07
-4.95855e-06
1.68519e-09
-5.19409e-06
-9.20598e-07
-7.07521e-06
-2.95324e-07
-5.49391e-06
-4.72283e-06
-2.01497e-06
-6.13017e-06
-1.35663e-06
-1.60906e-06
-2.72933e-06
-3.06295e-07
-8.17171e-06
-5.05626e-07
-2.3065e-05
-2.85258e-06
-6.55093e-05
-4.18513e-05
-4.34062e-05
-0.000146754
-0.000110803
-1.05785e-05
1.12048e-05
-3.61868e-05
5.06587e-05
-1.6518e-05
5.84034e-05
-3.72205e-06
8.05814e-06
-1.81194e-06
2.14967e-06
-1.64558e-06
8.46597e-07
-1.65493e-06
2.07397e-07
-1.7e-06
-2.28657e-07
-3.399e-06
-2.95898e-07
-6.31597e-06
9.7047e-07
-3.89465e-06
-1.11014e-05
-1.70119e-06
-9.19856e-06
-7.17888e-07
-2.84927e-06
-6.42924e-07
-7.70101e-07
-1.38718e-06
-2.82192e-07
-4.16658e-06
-5.10673e-07
-3.4665e-05
-8.19387e-06
-3.92783e-05
-0.000134093
-0.000150072
-4.8734e-06
1.7093e-05
-1.58486e-05
3.49035e-05
-4.33642e-06
4.94509e-05
-9.51561e-07
4.44972e-06
-4.82112e-07
1.50466e-06
-1.86621e-07
3.96044e-07
1.54033e-07
-2.88321e-07
7.51735e-07
-9.81422e-07
5.31537e-06
-5.02167e-06
3.35282e-05
-2.6006e-05
3.10135e-05
-5.52005e-05
2.42387e-06
-3.05982e-05
-2.84557e-07
-2.39724e-06
-1.5418e-07
-1.42433e-06
-8.50353e-08
-8.72131e-07
-6.00389e-07
-5.16114e-07
-7.17635e-06
-1.12554e-06
-3.00846e-05
-0.000101271
-0.000180126
3.49425e-07
1.54851e-05
-4.71405e-06
5.54392e-05
1.18336e-06
6.8155e-05
4.88833e-07
6.18438e-06
3.64229e-07
1.51725e-06
4.81902e-07
1.45088e-07
9.71348e-07
-9.32827e-07
4.03875e-06
-4.22317e-06
4.12307e-05
-1.88099e-05
7.88446e-05
-4.98791e-05
8.55264e-05
-5.55877e-05
5.40662e-05
-3.59752e-05
2.91036e-06
-9.90129e-06
1.14684e-06
-7.26183e-07
6.09672e-07
-8.55753e-07
3.0523e-07
-6.49121e-07
-7.49507e-07
-5.24453e-07
-1.7989e-05
-7.58519e-05
-0.000198022
2.20054e-06
1.1998e-05
4.83906e-06
6.17654e-05
6.41788e-06
8.34305e-05
1.99661e-06
1.42856e-05
1.08577e-06
2.39748e-06
1.12956e-06
-1.02449e-08
2.70114e-06
-2.67872e-06
2.65082e-05
-1.09442e-05
7.9277e-05
-3.40797e-05
8.58966e-05
-5.02041e-05
8.54062e-05
-4.96255e-05
6.57488e-05
-3.76492e-05
1.96166e-05
-3.13399e-05
2.54352e-07
-1.18529e-05
1.51667e-06
-1.44355e-06
1.14613e-06
-7.32224e-07
3.08585e-07
-1.79846e-07
-7.00083e-06
-6.15155e-05
-0.000204773
7.33473e-06
-3.1411e-08
8.57764e-06
-3.72333e-07
6.87043e-06
-3.412e-07
5.8855e-06
-2.28451e-07
5.32967e-06
-3.46348e-09
5.08379e-06
7.04547e-08
4.9607e-06
2.0015e-07
4.04089e-06
7.23652e-07
2.75015e-06
2.69642e-06
1.41181e-06
5.51892e-06
-8.38368e-07
1.01297e-05
-4.46359e-06
1.28582e-05
-7.33083e-06
1.19473e-05
-7.29362e-06
7.20844e-06
-6.91936e-06
6.02035e-06
-6.59024e-06
5.52446e-06
-5.55684e-06
3.7494e-06
-3.19181e-06
9.03545e-07
-5.68592e-07
-1.16569e-06
1.51473e-06
-3.70726e-06
2.856e-06
-6.5194e-06
9.58365e-07
-1.14896e-05
-7.99652e-06
-4.37336e-06
-3.12782e-08
-3.73744e-10
-4.05247e-07
4.06731e-10
-1.18964e-06
-6.57347e-12
-3.32046e-06
-1.0898e-10
-4.41099e-06
-9.79043e-10
-4.97281e-06
-7.07922e-09
-5.88202e-06
-2.74363e-08
-7.36892e-06
-9.15726e-08
-9.22866e-06
-3.28407e-07
-1.07604e-05
-4.55602e-07
-1.02692e-05
3.54237e-07
-8.21631e-06
2.57547e-06
-5.72139e-06
4.0957e-06
-2.89367e-06
3.30366e-06
-3.27945e-06
6.40612e-06
-5.42151e-06
7.66652e-06
-6.30751e-06
4.63539e-06
-4.49759e-06
-9.06373e-07
-2.26304e-06
-3.40024e-06
-8.95473e-07
-5.07482e-06
7.93112e-10
-7.41565e-06
-7.19564e-07
-1.07692e-05
-8.93489e-06
2.18978e-07
-3.96005e-10
1.76373e-12
-8.99909e-13
8.09195e-12
-9.48613e-12
-4.84412e-15
-1.19033e-10
-2.48936e-14
-1.09994e-09
-3.64921e-13
-8.14183e-09
-5.61233e-11
-3.56956e-08
5.83669e-11
-1.27252e-07
-1.77861e-11
-4.64247e-07
-1.98014e-10
-2.7523e-06
-1.79339e-09
-5.96658e-06
-1.44439e-08
-9.06704e-06
-9.0943e-08
-1.24446e-05
-4.17045e-07
-1.51036e-05
-1.85459e-06
-1.17442e-05
-2.83187e-06
-6.7142e-06
-8.98959e-07
-1.98783e-06
-1.13874e-06
2.0778e-06
-3.67511e-06
2.63984e-06
-3.53718e-06
1.53935e-06
-3.92622e-06
2.28576e-06
-8.16161e-06
2.42292e-06
-1.09058e-05
-1.03287e-05
3.8171e-06
7.12992e-13
-2.862e-14
3.45233e-12
4.09733e-12
-3.52315e-14
5.54906e-13
-6.43498e-13
-8.32955e-15
-1.60077e-12
6.88204e-15
-5.84381e-11
2.28617e-14
-1.44335e-12
3.83784e-14
-1.92593e-11
7.47582e-15
-2.16782e-10
-3.6236e-13
-2.00952e-09
-5.72267e-13
-1.64526e-08
-7.7209e-13
-1.07388e-07
-6.9869e-12
-5.24324e-07
-1.04895e-10
-2.37799e-06
-9.03981e-10
-5.89777e-06
-1.95499e-09
-7.68342e-06
-5.82938e-09
-9.92852e-06
-3.68729e-08
-1.26088e-05
-2.10431e-07
-1.19827e-05
-9.59057e-07
-1.03701e-05
-2.392e-06
-5.26963e-06
-6.70801e-06
6.02439e-08
-1.03166e-05
-8.67802e-06
6.77736e-07
4.04863e-14
-7.09013e-15
1.9219e-12
3.12755e-13
4.28315e-14
2.4513e-13
1.523e-14
9.46516e-14
8.14944e-16
2.33498e-15
-6.75942e-15
3.07377e-15
1.78155e-14
2.16646e-15
9.05436e-16
1.16285e-15
-2.68001e-15
-1.26598e-15
-3.31702e-14
-2.21638e-13
-4.27898e-13
-1.07653e-13
-7.06156e-12
-1.23447e-13
-6.74212e-11
-4.42241e-11
-1.99211e-10
-7.68601e-10
-9.76777e-10
-1.15436e-09
-6.73989e-09
-1.0163e-10
-4.37184e-08
7.97141e-11
-2.53888e-07
-4.50557e-10
-1.20917e-06
-5.38351e-09
-3.57296e-06
-3.90524e-08
-7.94901e-06
-2.87295e-07
-1.73037e-05
-1.08505e-06
-2.27822e-06
-2.64096e-05
-4.19849e-15
5.24729e-16
1.23697e-13
9.55183e-15
2.98812e-14
4.14522e-15
2.21496e-14
1.11867e-14
8.95462e-16
3.04694e-15
2.04845e-15
2.67586e-16
2.2777e-15
4.26204e-16
-1.60535e-14
2.62166e-15
-5.12588e-13
3.43108e-13
-9.11529e-14
1.16281e-12
2.53881e-13
9.79748e-13
-8.28885e-13
1.27016e-12
-1.11526e-09
9.50913e-11
-1.25712e-09
-1.63266e-10
-1.81202e-09
-1.30935e-10
-1.24681e-10
1.74088e-10
-4.73887e-11
5.78822e-13
-5.2377e-10
9.64674e-15
-6.06459e-09
-3.13438e-11
-4.67165e-08
-4.44033e-12
-3.39393e-07
-5.45464e-09
-1.44426e-06
-1.58567e-08
-8.79228e-08
-3.8216e-06
2.7625e-19
1.64072e-16
4.08689e-15
3.86257e-16
1.03859e-15
2.32125e-16
8.93048e-16
1.83664e-16
9.53997e-17
1.72036e-16
7.95405e-17
2.23092e-16
1.64668e-16
2.60003e-16
-2.75893e-15
3.33427e-15
-6.99684e-13
6.4293e-13
-4.53163e-13
1.13878e-12
4.77419e-13
2.55874e-12
9.97465e-13
2.59383e-12
-4.59392e-10
2.94633e-11
-6.47092e-10
5.79222e-13
-1.00812e-10
-4.5412e-14
-2.15052e-12
2.38187e-14
-3.45996e-12
1.95429e-13
1.35857e-10
1.15283e-11
1.70807e-12
2.02661e-10
-1.05436e-09
8.72454e-10
-3.17187e-11
1.03646e-09
-1.85966e-08
6.07678e-09
2.05243e-08
-1.53513e-07
1.07298e-18
1.33312e-17
8.7739e-17
3.91553e-17
2.6114e-17
1.50418e-17
1.91461e-17
1.98473e-17
2.05129e-17
8.7016e-17
3.22054e-17
2.23605e-16
3.14383e-17
2.86757e-16
1.33623e-15
2.02327e-15
-7.25473e-13
2.60497e-13
-7.07664e-13
1.27051e-12
-3.7538e-13
1.44607e-12
-6.39019e-12
2.53744e-12
-4.43912e-13
-1.23979e-12
-1.75571e-15
-8.8699e-14
-7.7616e-14
7.37823e-16
-9.61513e-14
3.24832e-15
-7.95455e-13
1.70026e-13
5.96678e-12
3.26552e-12
5.19189e-10
2.14282e-11
-2.70654e-09
3.02637e-10
-2.31489e-10
-1.94844e-10
-3.72708e-09
1.02054e-08
2.06868e-08
-8.93519e-09
8.58289e-21
8.10585e-19
1.57967e-18
1.82535e-18
9.04693e-19
9.00437e-19
2.68585e-18
7.5356e-18
1.28141e-17
7.29027e-17
2.20356e-17
2.25762e-16
1.15566e-17
3.33725e-16
5.65045e-16
5.37481e-16
-1.38428e-14
2.43133e-15
5.3206e-15
-4.02438e-14
1.93948e-13
9.70993e-13
-8.76196e-12
3.43894e-12
-5.78434e-13
8.48967e-12
-9.78729e-16
4.08809e-13
-2.24849e-14
5.57354e-16
-4.64436e-14
1.3555e-14
-3.73053e-12
9.60602e-13
2.7177e-12
1.68829e-11
4.01465e-11
3.29807e-12
-3.70748e-10
1.16787e-11
-6.96523e-11
-9.03532e-10
4.84802e-09
4.87294e-09
9.90315e-09
4.10707e-09
-4.61458e-21
5.18678e-20
2.45425e-20
5.44497e-20
3.17834e-20
6.33225e-20
7.86836e-19
3.63109e-18
6.10145e-18
4.63308e-17
1.46162e-17
1.72839e-16
1.63749e-17
3.35871e-16
2.25581e-18
3.36601e-16
-8.1626e-16
9.55248e-15
-2.11573e-15
1.24427e-14
-1.99925e-14
-2.60663e-14
-1.92038e-12
-2.82876e-14
-1.42534e-12
-8.95595e-14
-4.34958e-14
4.88491e-13
-5.58183e-14
1.21462e-15
-1.24573e-13
6.49667e-14
-1.16209e-11
2.76786e-12
-6.82676e-12
1.69468e-11
5.70389e-12
8.82755e-12
6.43741e-11
-2.9115e-11
-2.61918e-10
-1.82182e-09
-1.38456e-11
3.50135e-09
1.80398e-08
3.75914e-09
-1.39855e-23
3.16904e-21
3.46978e-22
2.05715e-21
1.70915e-21
7.86831e-21
1.70407e-19
1.29261e-18
1.68991e-18
1.68024e-17
5.50929e-18
8.1837e-17
8.49763e-18
2.63796e-16
9.87282e-18
2.5845e-16
-8.67168e-16
7.81527e-15
-4.63356e-15
7.09773e-14
-1.26555e-14
4.75817e-14
-3.34777e-14
2.06308e-14
-4.53322e-14
-1.80345e-14
-2.58326e-15
-1.41376e-16
-7.78423e-15
1.99311e-15
-1.86392e-14
6.45873e-14
-1.75296e-11
4.01416e-12
2.16979e-12
2.16749e-12
-8.98821e-12
1.92513e-12
-8.43521e-10
-8.26883e-11
-9.72654e-10
-2.04878e-09
-2.17315e-09
3.11527e-09
1.49595e-08
-2.68102e-09
1.15018e-23
2.08108e-22
4.89401e-24
1.59636e-21
1.30357e-22
1.34572e-21
1.81682e-20
3.21255e-19
1.36008e-19
4.28902e-18
1.23954e-19
2.67577e-17
-9.00046e-19
1.58393e-16
-2.83261e-18
2.42807e-16
-2.58433e-15
1.75898e-15
-7.94722e-15
8.08708e-14
-1.39072e-14
8.67039e-14
-2.268e-14
7.31945e-14
-1.74299e-14
5.13067e-14
-9.58784e-16
7.69342e-15
6.85933e-16
3.32928e-16
-1.92418e-13
7.70199e-15
-1.77995e-13
-3.91841e-15
3.13083e-13
2.3634e-14
-4.72194e-12
3.3894e-12
-1.41544e-09
4.1858e-12
-7.4435e-09
-9.70216e-10
-8.57077e-09
2.89911e-09
5.38195e-09
1.36255e-09
1.45428e-24
1.54782e-22
-2.67226e-25
-1.21432e-22
-4.11625e-24
1.69636e-22
-2.39345e-21
6.38685e-20
-5.26066e-20
9.36436e-19
-1.50251e-18
7.61629e-18
-5.33997e-18
9.00818e-17
-1.31158e-17
2.61527e-16
-2.82544e-15
5.74015e-16
-9.53304e-15
3.63766e-14
-2.32445e-14
7.87579e-14
-2.95523e-14
1.0374e-13
-9.46417e-15
8.08171e-14
-2.23076e-16
2.10299e-15
-1.02714e-16
3.97282e-17
-1.40352e-16
1.07297e-16
-1.28165e-14
1.57779e-15
-1.01152e-13
5.10245e-14
1.46299e-12
1.64078e-12
-7.12081e-10
9.23137e-12
-1.0618e-08
3.80673e-10
-1.30302e-08
4.30009e-09
1.70118e-09
-5.70784e-10
-1.14693e-24
-1.27044e-22
-4.04048e-26
-2.79779e-22
-2.01291e-23
7.94503e-23
-1.54214e-21
1.05782e-20
-2.31673e-20
1.78266e-19
-1.04478e-18
2.20829e-18
-1.14362e-17
5.25924e-17
-2.34799e-17
2.56816e-16
-4.04845e-16
2.91837e-16
-3.44252e-15
2.39919e-15
-2.38618e-14
1.83156e-14
-2.34213e-14
7.70827e-14
-1.27861e-15
1.4723e-14
-3.12852e-17
6.68457e-17
-3.55488e-17
3.82414e-17
-9.75082e-17
5.26877e-17
3.25389e-16
5.19657e-16
3.426e-14
1.1866e-14
1.31967e-12
1.39465e-13
-1.12548e-10
4.48139e-13
-3.47926e-09
-6.63826e-11
-3.35639e-09
-5.50646e-11
3.74343e-10
1.21312e-09
-1.1366e-24
-1.69799e-22
6.10537e-26
-2.49424e-22
-9.38165e-23
-1.89494e-23
-3.19901e-22
1.37641e-21
-6.04593e-21
2.89035e-20
-4.90082e-19
6.35186e-19
-1.26031e-17
2.38298e-17
-2.36914e-17
1.62316e-16
-4.60667e-17
2.09381e-16
-4.25674e-16
1.83385e-16
-7.95084e-15
1.43163e-15
-2.26165e-15
8.11777e-15
-4.97932e-17
2.88383e-16
-2.29785e-17
2.32722e-17
-2.83615e-17
3.58796e-17
-7.72401e-17
3.10079e-17
-3.16153e-16
2.25473e-16
8.19149e-15
1.26993e-15
4.93194e-14
1.07044e-14
-4.23157e-12
-4.16553e-14
-7.94257e-11
-2.44963e-13
-2.11304e-10
2.72329e-12
3.23271e-10
-3.48565e-10
-6.50311e-25
-1.51159e-22
8.66562e-25
-1.86666e-22
-1.61667e-23
-1.33255e-22
-4.28392e-23
1.18985e-22
-1.28243e-21
3.96521e-21
-1.57381e-19
1.62458e-19
-5.70969e-18
6.79038e-18
-2.06442e-17
5.86809e-17
-2.50064e-17
1.18523e-16
-4.60663e-17
8.0153e-17
-4.88214e-16
8.83786e-17
-6.47296e-17
1.67021e-16
-9.04284e-18
1.86936e-17
-1.05538e-17
1.10535e-17
-1.07616e-17
1.13164e-17
-2.75169e-17
7.07759e-18
-2.18483e-16
7.76487e-17
-5.70026e-16
5.51195e-16
-1.31556e-15
3.83595e-15
-1.37696e-13
5.52979e-14
-2.06348e-12
7.6416e-13
-2.17306e-11
1.24707e-11
2.08411e-10
-8.68386e-13
-2.70731e-25
-1.16449e-22
1.46695e-24
-1.22826e-22
-1.43428e-24
-1.53908e-22
-3.40435e-24
4.40904e-24
-2.46172e-22
4.66216e-22
-3.6914e-20
3.54177e-20
-1.41853e-18
1.33751e-18
-8.67911e-18
1.25924e-17
-1.10633e-17
3.59156e-17
-1.31499e-17
4.12973e-17
-2.24799e-17
3.14725e-17
-7.23357e-18
1.83991e-17
-3.37021e-18
5.91621e-18
-2.17685e-18
2.85126e-18
-1.62386e-18
1.06768e-18
-4.138e-18
8.0694e-19
-8.05261e-17
1.29593e-17
-4.10748e-16
1.76318e-16
2.62621e-15
1.47163e-15
2.22903e-14
2.04429e-14
2.56106e-13
3.1902e-13
5.32258e-12
4.36647e-12
5.39378e-11
1.31413e-10
-8.02022e-26
-8.02721e-23
1.38489e-24
-7.11256e-23
-8.07746e-26
-1.17384e-22
-1.87616e-25
3.08138e-24
-4.52718e-23
5.0014e-23
-7.10392e-21
6.53372e-21
-2.30717e-19
2.10694e-19
-1.56724e-18
1.88812e-18
-4.00767e-18
6.79584e-18
-5.32029e-18
1.39952e-17
-4.84688e-18
1.6527e-17
-1.90621e-18
6.02007e-18
-6.14283e-19
1.90003e-18
-1.6231e-19
3.26323e-19
-1.59846e-19
6.27756e-20
-3.84707e-19
8.84902e-20
-8.15708e-18
1.59634e-18
-1.51187e-16
3.48523e-17
-6.93616e-16
6.59135e-16
1.10493e-14
5.07923e-15
2.05049e-13
7.1091e-14
2.72064e-12
1.01379e-12
1.48549e-11
3.14369e-11
-1.34074e-26
-4.96126e-23
9.31328e-25
-3.59976e-23
1.63784e-25
-7.12613e-23
-1.46716e-24
-6.11321e-24
-7.65207e-24
5.60239e-24
-1.11114e-21
9.88779e-22
-3.02175e-20
2.90565e-20
-2.26617e-19
2.62811e-19
-8.20139e-19
1.09899e-18
-1.65166e-18
2.73127e-18
-1.26304e-18
4.2188e-18
-4.32718e-19
1.67601e-18
-7.55589e-20
4.12984e-19
-9.94099e-21
4.42313e-20
-1.19283e-20
5.32049e-21
-3.79297e-20
1.08628e-20
-8.97548e-19
2.48401e-19
-2.47489e-17
6.21419e-18
-3.62037e-16
1.46104e-16
5.40556e-17
1.99575e-15
4.55332e-14
1.33469e-14
7.33073e-13
1.49653e-13
2.44334e-12
1.08388e-11
1.61923e-27
-2.74001e-23
4.83681e-25
-1.57704e-23
1.65635e-25
-3.61358e-23
-1.68338e-25
-6.35015e-24
-1.03967e-24
6.53038e-25
-1.39026e-22
1.21894e-22
-3.75626e-21
3.7602e-21
-3.39628e-20
3.81604e-20
-1.27623e-19
1.70503e-19
-2.53463e-19
3.53294e-19
-2.12964e-19
4.48973e-19
-7.72633e-20
2.61443e-19
-1.21556e-20
7.74862e-20
-8.33528e-22
1.00481e-20
-9.89608e-22
6.03572e-22
-3.84735e-21
1.29693e-21
-1.08611e-19
4.15087e-20
-3.25855e-18
1.18137e-18
-8.97412e-17
3.10306e-17
-7.73166e-16
6.31866e-16
3.04051e-15
5.04181e-15
1.00155e-13
2.08734e-14
1.76267e-13
1.99612e-12
-5.37331e-28
-1.34705e-23
1.9846e-25
-5.92032e-24
8.66754e-26
-1.54548e-23
-1.75761e-26
-3.56826e-24
-1.04926e-25
6.70193e-26
-1.48272e-23
1.2489e-23
-4.61903e-22
4.6355e-22
-4.85829e-21
5.3508e-21
-1.68529e-20
2.33591e-20
-2.51049e-20
4.11931e-20
-2.40316e-20
4.28279e-20
-1.10929e-20
3.07943e-20
-2.11796e-21
1.20474e-20
-6.54385e-23
1.92386e-21
-7.63195e-23
4.52301e-23
-3.69068e-22
1.31169e-22
-1.27181e-20
6.40035e-21
-4.12569e-19
2.12111e-19
-1.26869e-17
5.97389e-18
-2.19359e-16
1.33357e-16
-9.45809e-16
1.70408e-15
2.89219e-15
7.65217e-15
7.6106e-15
1.00942e-13
-2.85621e-27
-5.87921e-24
6.46285e-26
-1.88818e-24
3.16701e-26
-5.5748e-24
-1.50752e-27
-1.46301e-24
-7.76644e-27
5.1204e-27
-1.36682e-24
1.04524e-24
-5.26709e-23
5.02458e-23
-5.64099e-22
6.47175e-22
-1.80382e-21
2.6527e-21
-2.33142e-21
4.52206e-21
-2.29854e-21
4.73535e-21
-1.1894e-21
3.34905e-21
-2.122e-22
1.25734e-21
-2.2333e-24
1.3338e-22
-2.59145e-24
2.60504e-23
-2.72462e-23
1.09734e-22
-1.31704e-21
8.12563e-22
-4.30576e-20
3.35409e-20
-1.24033e-18
9.14593e-19
-2.30156e-17
1.95146e-17
-1.88929e-16
2.73084e-16
-2.29611e-16
1.94987e-15
5.83705e-15
2.85449e-15
-2.73585e-27
-2.27566e-24
1.66446e-26
-5.0926e-25
8.76035e-27
-1.69751e-24
-9.52002e-29
-4.77321e-25
-4.20393e-28
2.69195e-28
-1.00237e-25
6.92076e-26
-4.87e-24
4.20366e-24
-4.96917e-23
6.00794e-23
-1.4661e-22
2.36762e-22
-1.91919e-22
4.05961e-22
-1.86249e-22
4.52419e-22
-8.16639e-23
2.89082e-22
-1.12213e-23
6.63115e-23
7.00704e-24
5.49538e-23
1.43022e-24
-7.13001e-23
-5.5028e-23
-1.44397e-23
-1.00115e-22
7.5471e-23
-3.3524e-21
4.51399e-21
-6.41194e-20
1.29588e-19
-5.96648e-19
2.24009e-18
3.51601e-18
2.92805e-17
1.11521e-16
2.56098e-16
1.70145e-15
1.52162e-15
-1.63897e-27
-7.81853e-25
3.32776e-27
-1.16324e-25
1.87599e-27
-4.38576e-25
-4.50178e-30
-1.28898e-25
-1.77284e-29
2.24171e-28
-5.3257e-27
3.79098e-27
-3.10853e-25
2.54159e-25
-3.09338e-24
3.9394e-24
-8.66033e-24
1.57414e-23
-1.15549e-23
2.71638e-23
-9.99384e-24
3.00818e-23
-3.20732e-24
1.37443e-23
1.79255e-24
3.61461e-23
5.87246e-24
-3.11062e-23
3.2396e-24
-1.06161e-22
-2.02045e-24
-6.49837e-23
-2.90059e-24
4.90282e-24
-3.42419e-23
4.97462e-22
3.40848e-21
1.96806e-20
1.42103e-19
3.29218e-19
2.83957e-18
3.44368e-18
3.60475e-17
2.90685e-17
2.45746e-16
3.56715e-16
-7.29124e-28
-2.39128e-25
4.8754e-28
-2.26817e-26
3.04672e-28
-9.70088e-26
1.31256e-30
-2.95074e-26
-5.08479e-29
-9.26314e-29
-2.0282e-28
1.83752e-28
-1.27966e-26
1.23966e-26
-1.28524e-25
1.97904e-25
-3.5812e-25
8.12294e-25
-4.01302e-25
1.36752e-24
-2.71577e-25
1.24312e-24
1.04049e-25
8.45336e-24
1.12993e-24
-3.77727e-24
1.31884e-24
-4.90549e-23
2.61325e-25
-8.4776e-23
-6.60408e-25
-5.75269e-23
1.65155e-24
2.91462e-24
2.99964e-23
4.88177e-23
2.05394e-21
2.99586e-21
5.21389e-20
6.19922e-20
7.03284e-19
6.01306e-19
7.07465e-18
4.0711e-18
3.17764e-17
7.37431e-17
-2.65253e-28
-6.53982e-26
4.07584e-29
-3.83383e-27
3.32704e-29
-1.85941e-26
5.21674e-31
-5.8337e-27
-1.44848e-30
-6.56334e-29
-5.35285e-30
8.40731e-30
-3.34925e-28
5.56197e-28
-3.21967e-27
9.11933e-27
-7.52707e-27
3.70337e-26
-5.66511e-27
5.77653e-26
-1.65359e-28
4.95351e-25
3.89245e-30
9.53458e-27
-9.90715e-26
-1.03534e-23
-7.27048e-25
-3.35246e-23
-1.81182e-24
-4.76242e-23
-1.96536e-24
-3.33923e-23
-1.81968e-25
-2.12373e-24
6.20861e-24
4.66742e-24
5.06672e-22
4.2169e-22
1.43614e-20
1.17727e-20
1.78516e-19
1.29524e-19
1.40948e-18
7.17963e-19
3.74917e-18
1.22562e-17
-8.36306e-29
-1.60799e-26
-7.07919e-31
-5.73706e-28
7.28341e-31
-3.13105e-27
3.2363e-32
-1.01245e-27
-1.11448e-32
-2.14011e-29
-2.96e-32
6.71758e-30
-4.61048e-31
2.6457e-29
1.3189e-29
4.21022e-28
1.19045e-28
1.73785e-27
4.70755e-28
4.69082e-26
3.47619e-28
2.03669e-26
-3.17465e-26
-1.19363e-24
-2.50471e-25
-6.4093e-24
-8.70632e-25
-1.57115e-23
-1.54788e-24
-2.0441e-23
-1.47964e-24
-1.45995e-23
-3.09357e-25
-2.33076e-24
1.22365e-24
3.79077e-25
9.48684e-23
5.62876e-23
3.35114e-21
2.09073e-21
4.53563e-20
2.76367e-20
2.79932e-19
1.2852e-19
3.38364e-19
1.546e-18
-2.30978e-29
-3.57549e-27
-3.66338e-31
-7.81856e-29
-1.99e-30
-4.69189e-28
-8.13845e-31
-1.56478e-28
-3.53177e-32
-5.31049e-30
-3.18254e-32
-3.66865e-30
3.09781e-31
2.07649e-29
5.56125e-30
3.40905e-28
2.94086e-29
1.39102e-27
-3.13525e-29
-1.10156e-27
-3.23504e-27
-8.51033e-26
-3.39823e-26
-6.75361e-25
-1.71264e-25
-2.60465e-24
-4.80762e-25
-5.64779e-24
-7.64719e-25
-7.00988e-24
-7.0144e-25
-5.06976e-24
-2.03392e-25
-1.1698e-24
3.15055e-25
1.39377e-25
1.60667e-23
7.93651e-24
7.33551e-22
3.90803e-22
1.07512e-20
5.48581e-21
4.82779e-20
2.14714e-20
2.42914e-20
1.30922e-19
-5.77336e-30
-7.23041e-28
-8.32975e-32
-1.00532e-29
-5.96415e-31
-6.33261e-29
-2.53734e-31
-2.18185e-29
-1.69827e-32
-1.15707e-30
-5.0415e-32
-2.75209e-30
-2.44515e-31
-1.065e-29
-6.91939e-31
-2.3997e-29
-1.21621e-29
-3.35727e-28
-2.21999e-28
-4.87683e-27
-2.51538e-27
-4.39864e-26
-1.73628e-26
-2.42267e-25
-7.26245e-26
-8.10152e-25
-1.83212e-25
-1.64124e-24
-2.73743e-25
-1.97865e-24
-2.46138e-25
-1.4425e-24
-8.44429e-26
-4.03312e-25
4.73576e-26
7.5762e-27
2.73866e-24
1.1623e-24
1.61792e-22
7.3736e-23
2.2831e-21
9.59791e-22
6.82632e-21
3.38917e-21
2.02091e-21
8.51258e-21
-1.32069e-30
-1.33647e-28
-1.51404e-32
-1.27566e-30
-1.11183e-31
-7.7823e-30
-4.92417e-32
-2.77476e-30
-5.20589e-33
-2.34098e-31
-2.83789e-32
-1.03681e-30
-2.2325e-31
-6.63722e-30
-1.50992e-30
-3.66663e-29
-1.35748e-29
-2.69935e-28
-1.31343e-28
-2.14017e-27
-1.06215e-27
-1.41953e-26
-6.07254e-27
-6.65797e-26
-2.28069e-26
-2.05254e-25
-5.3797e-26
-3.98127e-25
-7.7135e-26
-4.6996e-25
-6.83543e-26
-3.43951e-25
-2.56951e-26
-1.07028e-25
-5.18342e-28
-1.79246e-27
4.21638e-25
1.38379e-25
3.0919e-23
1.07216e-23
4.11182e-22
1.36459e-22
1.06255e-21
5.12353e-22
2.73954e-22
7.97873e-22
-2.74409e-31
-2.26772e-29
-2.54353e-33
-1.66724e-31
-1.6392e-32
-8.79195e-31
-7.54867e-33
-3.24954e-31
-1.29112e-33
-4.45117e-32
-1.00895e-32
-2.83798e-31
-9.22822e-32
-2.13344e-30
-7.1068e-31
-1.35885e-29
-5.78937e-30
-9.18747e-29
-4.63869e-29
-6.1244e-28
-3.19469e-28
-3.51411e-27
-1.63581e-27
-1.50058e-26
-5.72502e-27
-4.38422e-26
-1.28872e-26
-8.24237e-26
-1.78797e-26
-9.55955e-26
-1.56385e-26
-6.99524e-26
-6.16513e-27
-2.30867e-26
-3.00214e-28
-9.4208e-28
4.80036e-26
1.07395e-26
4.22316e-24
9.89668e-25
6.12773e-23
1.55295e-23
1.75241e-22
7.55833e-23
5.62325e-23
1.35681e-22
-5.14517e-32
-3.545e-30
-4.16579e-34
-2.28353e-32
-2.04591e-33
-9.20944e-32
-9.79739e-34
-3.53462e-32
-2.72145e-34
-7.87387e-33
-2.63489e-33
-6.2403e-32
-2.58603e-32
-5.05449e-31
-2.1021e-31
-3.41556e-30
-1.64109e-30
-2.22743e-29
-1.1975e-29
-1.36228e-28
-7.49636e-29
-7.16575e-28
-3.57291e-28
-2.87396e-27
-1.19144e-27
-8.07401e-27
-2.59123e-27
-1.48062e-26
-3.50347e-27
-1.68891e-26
-3.02521e-27
-1.23094e-26
-1.21778e-27
-4.18168e-27
-8.47179e-29
-2.454e-28
3.75858e-27
5.63976e-28
3.91418e-25
6.16917e-26
7.61234e-24
1.46984e-24
2.73438e-23
1.01092e-23
1.01039e-23
2.8044e-23
-8.72587e-33
-5.12035e-31
-6.65106e-35
-3.22321e-33
-2.22573e-34
-9.01521e-33
-1.1091e-34
-3.59909e-33
-4.90958e-35
-1.27993e-33
-5.40688e-34
-1.15634e-32
-5.51443e-33
-9.74721e-32
-4.61177e-32
-6.79082e-31
-3.51917e-31
-4.33734e-30
-2.43199e-30
-2.51723e-29
-1.43199e-29
-1.24861e-28
-6.49839e-29
-4.78401e-28
-2.09212e-28
-1.30297e-27
-4.43407e-28
-2.33788e-27
-5.86747e-28
-2.6218e-27
-5.00676e-28
-1.89563e-27
-2.02528e-28
-6.49543e-28
-1.74459e-29
-4.73508e-29
2.31223e-28
2.52121e-29
2.67734e-26
3.12131e-27
7.80519e-25
1.14415e-25
3.66864e-24
1.0587e-24
8.95108e-25
3.96498e-24
-1.34034e-33
-6.84953e-32
-1.00762e-35
-4.53055e-34
-2.14792e-35
-8.3088e-34
-1.11221e-35
-3.456e-34
-7.57541e-36
-1.90074e-34
-9.02017e-35
-1.8602e-33
-9.40219e-34
-1.60391e-32
-7.99777e-33
-1.13653e-31
-6.02191e-32
-7.1555e-31
-4.01709e-31
-4.00586e-30
-2.26797e-30
-1.90338e-29
-9.93862e-30
-7.03623e-29
-3.11896e-29
-1.86641e-28
-6.47562e-29
-3.28044e-28
-8.41649e-29
-3.6112e-28
-7.09571e-29
-2.5792e-28
-2.85244e-29
-8.77652e-29
-2.83862e-30
-7.38131e-30
1.38031e-29
1.09727e-30
1.4948e-27
1.40574e-28
6.28759e-26
6.84042e-27
3.69956e-25
7.59826e-26
4.28289e-26
3.15875e-25
-1.86518e-34
-8.50274e-33
-1.41013e-36
-6.14938e-35
-1.8558e-36
-7.26143e-35
-9.96257e-37
-3.15172e-35
-1.00183e-36
-2.58056e-35
-1.2493e-35
-2.6541e-34
-1.31757e-34
-2.3181e-33
-1.13221e-33
-1.65795e-32
-8.44696e-33
-1.03196e-31
-5.49893e-32
-5.6225e-31
-3.01109e-31
-2.583e-30
-1.28514e-30
-9.26741e-30
-3.95186e-30
-2.39985e-29
-8.06687e-30
-4.1309e-29
-1.0306e-29
-4.45346e-29
-8.57779e-30
-3.12692e-29
-3.39272e-30
-1.04255e-29
-3.71371e-31
-9.59678e-31
8.93559e-31
4.45252e-32
6.95566e-29
5.55413e-30
3.70345e-27
2.97804e-28
2.55581e-26
3.67299e-27
1.76747e-27
1.77307e-26
-2.33866e-35
-9.81398e-34
-1.79295e-37
-7.89224e-36
-1.45257e-37
-6.05872e-36
-8.03913e-38
-2.74825e-36
-1.13905e-37
-3.21908e-36
-1.45831e-36
-3.41542e-35
-1.54595e-35
-3.00351e-34
-1.33572e-34
-2.15783e-33
-9.88793e-34
-1.32957e-32
-6.32192e-33
-7.08547e-32
-3.38254e-32
-3.16512e-31
-1.41308e-31
-1.10611e-30
-4.2682e-31
-2.79925e-30
-8.56837e-31
-4.71391e-30
-1.07511e-30
-4.96251e-30
-8.80392e-31
-3.40762e-30
-3.39087e-31
-1.09894e-30
-3.91281e-32
-1.0589e-31
6.02626e-32
1.95607e-33
2.66869e-30
1.94499e-31
1.55927e-28
1.00962e-29
1.22165e-27
1.36955e-28
6.62196e-29
7.88265e-28
-2.6467e-36
-1.05548e-34
-2.05013e-38
-9.48356e-37
-1.03779e-38
-4.85664e-37
-5.89734e-39
-2.3058e-37
-1.12256e-38
-3.71565e-37
-1.45577e-37
-4.01867e-36
-1.54108e-36
-3.54438e-35
-1.33385e-35
-2.54937e-34
-9.81263e-35
-1.55569e-33
-6.18001e-34
-8.13346e-33
-3.24172e-33