/*--------------------------------*- C++ -*----------------------------------*\
| =========                 |                                                 |
| \\      /  F ield         | OpenFOAM: The Open Source CFD Toolbox           |
|  \\    /   O peration     | Version:  2206                                  |
|   \\  /    A nd           | Website:  www.openfoam.com                      |
|    \\/     M anipulation  |                                                 |
\*---------------------------------------------------------------------------*/
FoamFile
{
    version     2.0;
    format      ascii;
    arch        "LSB;label=32;scalar=64";
    class       volScalarField;
    location    "0.65";
    object      alpha.water;
}
// * * * * * * * * * * * * * * * * * * * * * * * * * * * * * * * * * * * * * //

dimensions      [0 0 0 0 0 0 0];

internalField   nonuniform List<scalar> 
2268
(
0.999999
0.999999
1
1
1
1
1
1
1
1
1
1
1
1
1
1
0.999734
0.963933
0.937925
0.965599
0.998899
0.998928
0.998928
0.999999
1
1
1
1
1
1
1
1
1
1
1
1
1
1
1
0.999999
0.988275
0.937919
0.933881
0.979165
0.991278
0.998928
1
1
1
1
1
1
1
1
1
1
1
1
1
1
1
1
1
0.999997
0.985873
0.933881
0.933881
0.9339
0.998921
1
1
1
1
1
1
1
1
1
1
1
1
1
1
1
1
1
1
0.999995
0.984589
0.933872
0.9537
0.997292
1
1
1
1
1
1
1
1
1
1
1
1
1
1
1
1
1
1
1
0.999997
0.969014
1
0.999991
1
1
1
1
1
1
1
1
1
1
1
1
1
1
1
1
1
1
1
1
1
1
0.999982
1
1
1
1
0.999995
0.999988
0.999993
1
1
1
1
1
1
1
1
1
1
1
1
1
1
1
0.999944
0.989706
0.96957
0.942601
0.922826
0.921338
0.932965
0.973077
0.999083
1
1
1
1
1
1
1
1
1
1
1
1
1
1
0.99995
0.0614378
0.0617541
0.269966
0.90493
0.90493
0.904929
0.904923
0.904902
0.904843
0.904682
0.904252
0.903808
0.904242
0.904667
0.905253
0.905653
0.910684
0.858377
0.826437
0.0984299
0.109227
0.789989
0.90493
0.904929
0.847263
0.792501
0.779613
0.768444
0.768592
0.815343
0.861448
0.892569
0.90225
0.905068
0.913155
0.922193
0.923764
0.92375
0.15296
0.342747
0.788376
0.745111
0.176847
0.0914332
0.0719817
0.0581459
0.0514388
0.0506323
0.0816719
0.16602
0.295723
0.408864
0.537859
0.717736
0.915791
0.923754
0.923759
0.176564
0.59636
0.603739
0.143059
0.00986423
0.00540637
0.00545864
0.00963965
0.0136805
0.0155592
0.0150945
0.0102368
0.00874758
0.00691638
0.00740512
0.0306587
0.459392
0.923675
0.923748
0.17212
0.516316
0.575944
0.00993947
0.00545911
0.0041456
0.00394032
0.00636285
0.0188082
0.0192207
0.0261167
0.0106702
0.00691638
0.00670624
0.0064961
0.00663292
0.0695071
0.816317
0.923661
0.127988
0.43205
0.237498
0.00563637
0.00414822
0.00394479
0.00394479
0.00394479
0.00484026
0.191893
0.474161
0.290634
0.0127428
0.0064961
0.0064961
0.0064961
0.00973907
0.415492
0.923319
0.115983
0.315803
0.243535
0.0113443
0.00405056
0.00399776
0.00394479
0.00450253
0.0947785
0.650632
0.818694
0.762049
0.283648
0.00946037
0.0064961
0.00663292
0.0071173
0.329466
0.922346
0.117686
0.117686
0.283509
0.0211106
0.00472002
0.00405074
0.00450253
0.0308004
0.551875
0.818694
0.824093
0.823642
0.542002
0.139871
0.01295
0.0071173
0.007846
0.354924
0.920005
0.404242
0.361852
0.330172
0.343479
0.383192
0.473431
0.621332
0.785554
0.910005
0.990538
1
1
1
1
1
1
1
1
1
1
1
1
1
1.18125e-06
1.16708e-05
0.000829746
0.0265019
0.0680119
0.106751
0.136527
0.179115
0.272894
0.423275
0.615236
0.77243
0.887314
0.99328
1
1
1
1
1
1
1
1
0.999999
8.26788e-08
1.64973e-08
9.22962e-09
2.05815e-09
9.01873e-09
1.11862e-07
4.44844e-07
1.11127e-08
1.04159e-05
0.00736709
0.0489188
0.118872
0.23508
0.40294
0.611712
0.761772
0.856466
0.971751
0.997005
0.999806
0.999987
0.999987
0.999995
5.38457e-09
1.38217e-08
1.1764e-08
2.05815e-09
1.81392e-09
3.90366e-09
1.10614e-08
3.34293e-10
8.62058e-10
5.36639e-10
1.78876e-09
6.1148e-09
6.16031e-08
4.73789e-07
0.0352617
0.106995
0.176638
0.28675
0.453802
0.584058
0.68735
0.842217
0.940115
4.92156e-10
8.08013e-09
7.75233e-09
5.26365e-09
1.68372e-10
1.58372e-10
2.18602e-10
2.31047e-10
8.97112e-10
1.11553e-09
1.40962e-09
1.83799e-09
6.11809e-09
6.15998e-08
4.7366e-07
1.18825e-06
1.2447e-07
5.2959e-07
4.50958e-06
3.47374e-05
0.0591906
0.183396
0.352902
4.60688e-11
7.1167e-10
1.12047e-09
1.61221e-09
1.64023e-10
1.48415e-11
1.9318e-11
1.68258e-10
2.93341e-08
7.7031e-08
1.4922e-08
6.1181e-09
1.0652e-05
4.80168e-05
4.8374e-05
2.82495e-05
2.90182e-08
1.2447e-07
5.2959e-07
4.50942e-06
3.47086e-05
0.000182962
0.000928354
5.69664e-12
2.51944e-11
2.73085e-11
6.49658e-11
2.14618e-11
7.28417e-12
9.59018e-12
2.07817e-11
4.71614e-08
1.14456e-07
7.10273e-08
4.25668e-08
6.46041e-06
2.43994e-05
1.01925e-05
1.47764e-07
7.25671e-09
3.1267e-08
1.59628e-05
6.82296e-05
0.000113364
0.000126269
0.000221303
6.80724e-13
1.03977e-12
1.48106e-12
1.44021e-12
3.2173e-12
6.97089e-12
9.28972e-12
9.50819e-12
2.80405e-08
1.14298e-07
1.15724e-07
1.20413e-07
3.77623e-07
3.00618e-10
5.45925e-11
8.14276e-11
1.51984e-09
7.03087e-09
2.86317e-06
5.99415e-05
0.000252871
0.000245727
0.000255046
4.78479e-14
1.32311e-13
1.07557e-13
3.95636e-13
2.58014e-12
7.02324e-12
1.04857e-11
1.8501e-11
2.15354e-09
2.94239e-08
9.10231e-08
2.73649e-07
5.95868e-07
3.85651e-08
5.45925e-11
5.45925e-11
3.47167e-08
2.94915e-07
3.12324e-07
1.62929e-05
0.000192505
0.000280047
0.000333554
2.84078e-15
5.55639e-15
7.35574e-15
1.81354e-13
1.80542e-12
5.99574e-12
1.04481e-11
1.37309e-11
4.36043e-10
6.19748e-10
1.276e-08
6.42844e-08
2.37922e-07
4.02406e-08
5.22593e-11
8.59224e-11
1.10164e-07
2.59892e-06
3.55783e-06
3.56594e-06
9.89903e-05
0.000273969
0.00021399
1.68079e-16
1.47145e-16
8.26204e-16
7.17884e-14
8.54247e-13
3.60523e-12
9.08648e-12
9.45367e-12
3.43713e-10
2.0182e-09
2.3338e-09
2.53469e-09
2.40945e-09
2.99866e-09
4.09964e-11
1.19285e-10
3.40354e-07
1.34817e-06
6.78514e-07
1.05326e-05
0.000196835
0.0002723
0.00020833
7.13365e-18
1.28712e-18
1.36379e-16
2.14677e-14
2.74784e-13
1.4791e-12
6.21323e-12
7.58164e-12
1.17944e-10
2.97418e-09
3.25105e-09
2.93547e-09
2.33241e-09
8.56346e-10
2.80937e-11
7.64179e-10
1.44703e-08
9.57619e-09
2.77237e-08
1.85407e-05
0.000204116
0.000270505
0.00026279
1.12256e-19
-4.10834e-18
2.22448e-17
4.99789e-15
6.91198e-14
4.69686e-13
3.65454e-12
8.06076e-12
3.47621e-11
1.95104e-09
3.12569e-09
3.82012e-09
3.33409e-09
2.60816e-10
2.10888e-12
1.93585e-11
2.64459e-11
3.48638e-10
6.25723e-09
1.983e-06
0.000153467
0.000268769
0.000192453
-2.51356e-18
-9.31636e-18
1.17994e-18
9.49996e-16
1.46341e-14
1.37166e-13
2.1727e-12
7.91126e-12
1.20936e-11
3.62929e-10
1.37018e-09
3.31905e-09
1.35079e-09
1.12629e-11
1.53937e-12
2.14854e-12
5.48085e-12
6.33269e-11
1.62339e-09
2.60689e-07
2.17817e-05
6.47278e-05
4.80717e-05
-3.38194e-18
-8.18423e-18
-5.59369e-19
1.44105e-16
2.6166e-15
3.93018e-14
1.11336e-12
5.97905e-12
8.04634e-12
1.75195e-11
2.18764e-10
9.4967e-10
9.15357e-11
1.57258e-12
1.33825e-12
1.45513e-12
6.62061e-12
1.74078e-11
3.16256e-10
1.25686e-08
4.73678e-08
4.43944e-07
2.50076e-06
-3.02364e-18
-6.03807e-18
-3.87512e-18
1.65927e-17
3.90397e-16
1.04013e-14
3.99544e-13
2.89797e-12
4.93391e-12
4.17955e-12
1.11161e-11
4.36624e-11
1.3589e-12
6.2357e-13
6.24521e-13
4.53029e-13
3.61703e-12
1.42581e-11
4.92549e-11
4.20427e-10
5.7628e-09
6.59715e-08
6.32866e-07
-2.33474e-18
-3.91616e-18
-4.40608e-18
8.10222e-19
4.82003e-17
2.42868e-15
9.81019e-14
8.55957e-13
1.97434e-12
1.93965e-12
1.55717e-12
1.26255e-12
3.60813e-13
1.91833e-13
1.10109e-13
6.20666e-14
8.27253e-13
6.18855e-12
1.43799e-11
1.16647e-10
1.27555e-09
1.68781e-08
1.80117e-07
-1.61103e-18
-2.2344e-18
-3.30884e-18
5.06467e-21
4.92709e-18
4.93335e-16
1.79952e-14
1.61624e-13
4.89186e-13
7.49731e-13
7.67913e-13
3.60227e-13
1.13995e-13
3.00554e-14
8.11183e-15
5.79303e-15
8.65586e-14
1.47172e-12
1.11318e-11
3.15301e-11
3.26899e-10
4.18556e-09
4.93199e-08
-9.95971e-19
-1.11392e-18
-1.97929e-18
-1.64087e-19
4.73147e-19
8.40633e-17
2.70387e-15
2.40157e-14
8.93574e-14
1.92404e-13
2.57888e-13
1.0605e-13
2.68287e-14
3.42783e-15
5.12297e-16
5.77625e-16
9.83378e-15
2.30245e-13
4.3983e-12
2.79156e-11
8.34499e-11
8.80202e-10
1.02108e-08
-5.50018e-19
-4.80784e-19
-9.90063e-19
-1.684e-19
5.02262e-20
1.1645e-17
3.62067e-16
3.45786e-15
1.45921e-14
3.13639e-14
4.17961e-14
2.05154e-14
5.34711e-15
6.32401e-16
5.278e-17
5.86076e-17
1.49091e-15
3.94717e-14
1.02782e-12
1.52574e-11
6.94912e-11
1.98219e-10
1.71717e-09
-2.70412e-19
-1.77904e-19
-4.18265e-19
-9.36215e-20
5.34601e-21
1.31929e-18
4.58518e-17
4.93662e-16
2.14313e-15
3.97234e-15
4.34594e-15
2.77518e-15
9.30168e-16
1.35885e-16
5.10387e-18
5.87472e-18
2.47125e-16
7.49344e-15
2.14866e-13
4.51038e-12
3.91521e-11
1.19541e-10
3.38152e-10
-1.18079e-19
-5.59704e-20
-1.4926e-19
-3.80378e-20
4.5401e-22
1.21249e-19
5.34665e-18
6.4562e-17
2.68824e-16
4.60401e-16
4.699e-16
3.21543e-16
1.21552e-16
1.60237e-17
8.14573e-20
1.55377e-19
3.7516e-17
1.40182e-15
3.84003e-14
8.43979e-13
1.03263e-11
5.04059e-11
8.5349e-11
-4.57593e-20
-1.4906e-20
-4.50374e-20
-1.23188e-20
2.19684e-23
8.56019e-21
5.10091e-19
6.91241e-18
2.72618e-17
4.57808e-17
4.86318e-17
3.22577e-17
9.27812e-18
2.03584e-19
-1.48833e-18
-2.87649e-19
4.31639e-18
2.3459e-16
6.12986e-15
1.09041e-13
1.39839e-12
1.01113e-11
3.60723e-11
-1.57546e-20
-3.36612e-21
-1.15505e-20
-3.3079e-21
2.65797e-25
4.53405e-22
3.45411e-20
5.26383e-19
2.04894e-18
3.4485e-18
3.80814e-18
1.97057e-18
9.31675e-20
-6.76212e-19
-2.22332e-18
-1.30417e-18
3.43513e-19
3.18598e-17
9.99255e-16
1.48252e-14
1.5221e-13
1.25066e-12
8.65798e-12
-4.83319e-21
-6.49901e-22
-2.54067e-21
-7.54283e-22
-2.35601e-24
1.98521e-23
1.605e-21
2.67063e-20
1.07033e-19
1.76837e-19
1.67846e-19
1.82568e-20
-8.51364e-20
-1.0738e-18
-1.79469e-18
-1.17301e-18
2.17478e-21
3.41667e-18
1.62293e-16
2.75269e-15
2.43294e-14
1.67933e-13
1.34761e-12
-1.32717e-21
-1.08965e-22
-4.85206e-22
-1.48783e-22
-1.66604e-24
6.27659e-25
6.06534e-23
1.02816e-21
4.12763e-21
6.09803e-21
1.72592e-21
0
-2.35497e-19
-7.42921e-19
-1.0253e-18
-6.9589e-19
-4.27129e-20
3.39947e-19
2.49443e-17
5.62199e-16
5.38825e-15
3.09572e-14
1.92653e-13
-3.28016e-22
-1.62084e-23
-8.15503e-23
-2.5801e-23
-5.43162e-25
6.16408e-27
1.61892e-24
3.4606e-23
1.25812e-22
4.7519e-23
0
-2.80415e-20
-1.47681e-19
-3.54158e-19
-4.49602e-19
-3.12654e-19
-4.84837e-20
3.34338e-20
3.56593e-18
1.07776e-16
1.25023e-15
6.1994e-15
2.21214e-14
-7.34078e-23
-2.19969e-24
-1.22191e-23
-3.99181e-24
-1.34978e-25
-9.274e-26
1.70724e-26
3.13724e-25
1.25212e-24
-2.69101e-23
-2.05363e-21
-1.60696e-20
-6.09901e-20
-1.29922e-19
-1.58133e-19
-1.11994e-19
-2.52722e-20
1.57049e-21
5.17765e-19
2.09618e-17
2.79216e-16
1.18476e-15
1.82798e-15
-1.49632e-23
-2.82119e-25
-1.65203e-24
-5.57928e-25
-2.94999e-26
-6.98284e-26
-2.68725e-25
-6.01511e-25
-8.35215e-24
-1.20281e-22
-1.07429e-21
-5.85167e-21
-1.93281e-20
-3.86304e-20
-4.58999e-20
-3.29604e-20
-9.07353e-21
0
8.2276e-20
4.38136e-18
5.75469e-17
2.14683e-16
1.49739e-16
-2.7931e-24
-3.57486e-26
-2.03671e-25
-7.12188e-26
-5.99539e-27
-2.64442e-26
-1.68541e-25
-9.26173e-25
-6.77817e-24
-5.33869e-23
-3.51514e-22
-1.63546e-21
-4.99818e-21
-9.60541e-21
-1.1232e-20
-8.14316e-21
-2.51164e-21
-4.17337e-23
1.19902e-20
8.04481e-19
1.00857e-17
3.67973e-17
1.87034e-17
-4.79669e-25
-4.66864e-27
-2.31089e-26
-8.38161e-27
-1.14659e-27
-7.28643e-27
-5.4598e-26
-3.46399e-25
-2.33221e-24
-1.54761e-23
-8.83705e-23
-3.75444e-22
-1.09124e-21
-2.04115e-21
-2.35645e-21
-1.71781e-21
-5.65619e-22
-2.30697e-23
1.23992e-21
1.02642e-19
1.42895e-18
6.17444e-18
3.95001e-18
-7.60722e-26
-6.39005e-28
-2.43272e-27
-9.17067e-28
-2.04215e-28
-1.61457e-27
-1.30518e-26
-8.79833e-26
-5.72365e-25
-3.492e-24
-1.83248e-23
-7.33395e-23
-2.05678e-22
-3.76781e-22
-4.29818e-22
-3.13764e-22
-1.07009e-22
-6.32214e-24
8.0582e-23
8.43331e-21
1.66545e-19
9.85896e-19
9.023e-19
-1.1175e-26
-9.00891e-29
-2.39353e-28
-9.3989e-29
-3.34454e-29
-3.01711e-28
-2.54169e-27
-1.76919e-26
-1.12931e-25
-6.55251e-25
-3.2507e-24
-1.24652e-23
-3.40053e-23
-6.11961e-23
-6.89429e-23
-5.01931e-23
-1.73706e-23
-1.28374e-24
3.69783e-24
4.94614e-22
1.61252e-20
1.34009e-19
1.29329e-19
-1.52415e-27
-1.26341e-29
-2.21608e-29
-9.08568e-30
-5.00458e-30
-4.89555e-29
-4.22455e-28
-2.9956e-27
-1.88857e-26
-1.05939e-25
-5.04754e-25
-1.87303e-24
-4.99351e-24
-8.83711e-24
-9.81751e-24
-7.09716e-24
-2.45384e-24
-2.10681e-25
1.54681e-25
2.41671e-23
1.23289e-21
1.34234e-20
9.7078e-21
-1.93353e-28
-1.70821e-30
-1.94344e-30
-8.33829e-31
-6.84299e-31
-7.04234e-30
-6.1646e-29
-4.41937e-28
-2.76001e-27
-1.51013e-26
-6.97481e-26
-2.51953e-25
-6.58007e-25
-1.1449e-24
-1.25124e-24
-8.93873e-25
-3.04617e-25
-2.88275e-26
6.392e-27
1.01642e-24
6.79338e-23
9.02021e-22
5.15365e-22
-2.28489e-29
-2.18016e-31
-1.62467e-31
-7.3106e-32
-8.58781e-32
-9.12807e-31
-8.05612e-30
-5.81059e-29
-3.59914e-28
-1.93042e-27
-8.6915e-27
-3.06685e-26
-7.85327e-26
-1.34183e-25
-1.43828e-25
-1.00997e-25
-3.34881e-26
-3.34023e-27
2.01061e-28
3.59167e-26
2.60167e-24
4.19086e-23
2.33315e-23
-2.51898e-30
-2.60091e-32
-1.30263e-32
-6.15996e-33
-9.95768e-33
-1.08038e-31
-9.57411e-31
-6.92394e-30
-4.25496e-29
-2.24337e-28
-9.87909e-28
-3.41159e-27
-8.56577e-27
-1.43471e-26
-1.50312e-26
-1.03171e-26
-3.28597e-27
-3.31911e-28
1.27113e-46
1.17e-27
8.10267e-26
1.62499e-24
9.57581e-25
-2.59532e-31
-2.88427e-33
-1.00732e-33
-5.0156e-34
-1.07476e-33
-1.18087e-32
-1.04775e-31
-7.57792e-31
-4.61927e-30
-2.39781e-29
-1.03486e-28
-3.50105e-28
-8.61499e-28
-1.41171e-27
-1.44068e-27
-9.61358e-28
-2.90545e-28
-2.86986e-29
6.02189e-47
3.96665e-29
2.19179e-27
4.88059e-26
1.2422e-25
-2.50519e-32
-2.95766e-34
-7.54772e-35
-3.9651e-35
-1.08779e-34
-1.20334e-33
-1.0669e-32
-7.7012e-32
-4.6551e-31
-2.38115e-30
-1.00848e-29
-3.34398e-29
-8.05914e-29
-1.28967e-28
-1.27815e-28
-8.25213e-29
-2.34122e-29
-2.19678e-30
0
1.24768e-30
5.48686e-29
1.32214e-27
2.56584e-26
-2.27459e-33
-2.79856e-35
-5.49762e-36
-3.05524e-36
-1.03927e-35
-1.15251e-34
-1.01971e-33
-7.3336e-33
-4.39457e-32
-2.21628e-31
-9.21874e-31
-2.99705e-30
-7.07016e-30
-1.10315e-29
-1.05921e-29
-6.59195e-30
-1.74016e-30
-1.51593e-31
-2.10534e-34
3.24194e-32
1.28594e-30
3.08489e-29
1.92918e-27
-1.95384e-34
-2.45707e-36
-3.9002e-37
-2.30092e-37
-9.42597e-37
-1.04454e-35
-9.21375e-35
-6.59365e-34
-3.91618e-33
-1.94797e-32
-7.96334e-32
-2.53895e-31
-5.86018e-31
-8.90476e-31
-8.26982e-31
-4.94727e-31
-1.20662e-31
-9.57471e-33
-3.78508e-35
8.33956e-34
3.00073e-32
5.08966e-31
2.66596e-29
-1.59851e-35
-1.9819e-37
-2.69546e-38
-1.6966e-38
-8.15628e-38
-9.01122e-37
-7.91891e-36
-5.63397e-35
-3.3162e-34
-1.62766e-33
-6.54359e-33
-2.04663e-32
-4.62124e-32
-6.83357e-32
-6.13077e-32
-3.51755e-32
-7.8661e-33
-5.54663e-34
-2.0037e-36
1.13279e-35
3.66572e-34
5.36081e-33
1.029e-31
0.999904
0.999457
0.999548
0.999259
0.999992
0.999991
0.999988
0.999947
0.999991
0.999988
0.999957
0.999911
0.981787
0.966279
0.92041
0.742593
0.453315
0.395594
0.279378
0.0602371
0.0297963
0.0797548
0.0984479
0.0227279
0.00104952
0.0484526
0.102385
0.0250806
0.00049506
0.0515403
0.102385
0.0626356
0.000291812
0.0182121
0.102385
0.0793919
0.000222536
0.0081593
0.098944
0.0762624
0.000200661
0.00338602
0.0662779
0.0780198
0.000182538
0.00161547
0.0560652
0.0759548
0.000142464
0.00102018
0.0502082
0.069905
6.43623e-05
0.000578715
0.0365466
0.0572106
1.17841e-05
0.000561197
0.0229742
0.0368797
5.64504e-06
0.000362618
0.00552134
0.0118397
2.93009e-06
6.07741e-05
0.000144595
0.000825608
6.20216e-07
4.71849e-06
5.04937e-05
0.00112333
1.16997e-07
1.38753e-06
2.03786e-05
0.00270452
1.94994e-08
7.1791e-07
3.64475e-05
0.00187424
3.72583e-09
1.02384e-07
8.69144e-06
0.00012127
2.97778e-10
3.59785e-09
7.8893e-08
1.96259e-06
5.90409e-11
4.11857e-10
9.1968e-09
2.46151e-07
3.21102e-11
6.15268e-11
9.64639e-10
2.59407e-08
1.34378e-11
2.4149e-11
1.04854e-10
2.34365e-09
3.03724e-12
1.57131e-11
3.14704e-11
2.01127e-10
6.44657e-13
6.00531e-12
2.98248e-11
5.76375e-11
1.86362e-13
2.27681e-12
1.83007e-11
6.16644e-11
6.56505e-14
9.96434e-13
8.37822e-12
2.55223e-11
2.93505e-14
4.46996e-13
2.90374e-12
2.58518e-12
1.45952e-14
1.96001e-13
4.39311e-13
2.47668e-13
5.28791e-15
5.78486e-14
2.43631e-13
2.45013e-13
8.59347e-16
1.03941e-14
1.48456e-13
1.23991e-12
4.32566e-17
1.27743e-15
7.52266e-14
1.80394e-12
8.91468e-19
1.33553e-16
2.14323e-14
4.31149e-13
3.15312e-20
8.57221e-18
2.8443e-15
7.40439e-14
1.6691e-21
1.63614e-19
3.26503e-16
1.0083e-14
6.6341e-23
1.3708e-21
6.03803e-17
1.25702e-15
1.25266e-24
9.59258e-23
7.58673e-18
1.46986e-16
2.08946e-26
3.74199e-24
4.94506e-19
5.31716e-17
1.78779e-28
6.8402e-25
1.73594e-20
2.11748e-18
1.17138e-30
1.81385e-26
2.08659e-23
7.2407e-22
0.619028
0.346587
0.215069
0.0146583
0.00736811
0.00472002
0.0308573
0.459925
0.788899
0.809888
0.818047
0.829492
0.829492
0.481731
0.0274514
0.00748576
0.0067177
0.333123
0.912092
0.999911
0.969609
0.775597
0.481561
0.423986
0.653546
0.77821
0.77821
0.660763
0.229855
0.241619
0.642648
0.72586
0.322022
0.00679117
0.00594895
0.00589601
0.27149
0.86073
0.972792
0.972961
0.970304
0.955762
0.925237
0.655577
0.11332
0.0798814
0.0792447
0.158466
0.322168
0.34262
0.138345
0.00673952
0.00594898
0.00573688
0.00575219
0.150683
0.775688
0.37432
0.302318
0.467259
0.625337
0.315264
0.130059
0.117664
0.150034
0.200336
0.133674
0.0800318
0.0133162
0.00711446
0.00604949
0.00575219
0.00575219
0.00574689
0.0387435
0.669189
0.0196787
0.0207024
0.0594711
0.152029
0.146283
0.143617
0.323907
0.634675
0.687111
0.69487
0.603017
0.393028
0.192603
0.0732791
0.0396376
0.0145744
0.00575219
0.00639723
0.60422
0.0160919
0.0198912
0.0311079
0.0582845
0.216758
0.612927
0.753305
0.780956
0.795368
0.795577
0.795368
0.795686
0.730787
0.519925
0.534077
0.468569
0.0486623
0.00804054
0.596484
0.0115159
0.0157709
0.0265522
0.110937
0.468285
0.685061
0.731548
0.569787
0.716948
0.795368
0.79566
0.722762
0.474085
0.563698
0.672088
0.669505
0.388929
0.0209907
0.627544
0.0078705
0.00996223
0.0176293
0.128786
0.535903
0.646576
0.390707
0.021299
0.168396
0.786635
0.788307
0.314516
0.166412
0.16616
0.225939
0.565707
0.179234
0.0776429
0.726523
0.00544949
0.00549855
0.00887557
0.0790594
0.439515
0.590625
0.0560009
0.00528512
0.0174407
0.44806
0.756101
0.350036
0.166087
0.167576
0.173878
0.189277
0.291515
0.30351
0.84041
0.00399352
0.0039575
0.00468917
0.0176157
0.226741
0.425314
0.00688537
0.00214466
0.00528511
0.128799
0.684072
0.725728
0.366594
0.173878
0.327918
0.679927
0.785836
0.863853
0.925468
0.00336373
0.00309374
0.00320547
0.00444834
0.12768
0.28135
0.00507145
0.000645163
0.00176387
0.00714844
0.283804
0.751074
0.760433
0.701613
0.842342
0.922317
0.924741
0.925454
0.925477
0.00279154
0.00276418
0.00291594
0.00320547
0.0935527
0.282118
0.0236748
6.4268e-05
0.000211514
0.00079756
0.0118371
0.452776
0.752097
0.833246
0.869091
0.906323
0.922613
0.925038
0.925454
0.00268126
0.00268147
0.00276418
0.00291594
0.133179
0.280263
0.095597
1.10325e-05
6.53568e-06
-5.07816e-07
-3.09591e-05
-8.02563e-05
0.0711973
0.277805
0.305194
0.31596
0.52784
0.831661
0.925038
0.00268126
0.00268122
0.00268147
0.00678532
0.250808
0.278127
1.10403e-05
6.11293e-06
6.1969e-06
6.95127e-06
8.72748e-06
1.20871e-05
1.66801e-05
2.47462e-05
6.77719e-05
0.000338448
0.00178714
0.207776
0.866606
0.00268126
0.00268147
0.00278073
0.146831
0.250709
0.154602
5.99157e-06
5.3533e-06
5.5983e-06
6.21552e-06
8.99742e-06
1.14724e-05
1.27608e-05
1.32726e-05
1.01872e-05
5.79395e-05
0.000337534
0.00178054
0.219115
0.00432021
0.00278073
0.110845
0.181658
0.181135
3.25113e-05
5.35331e-06
5.24844e-06
5.20769e-06
1.71548e-05
2.01285e-05
1.98668e-05
1.45489e-05
1.06814e-05
3.69691e-06
2.02997e-06
5.50134e-05
0.00444443
0.00543624
0.0139268
0.103536
0.154211
0.157517
0.000556469
8.81343e-06
5.24844e-06
5.03179e-06
4.57872e-06
1.6776e-05
1.98873e-05
2.01285e-05
1.47234e-05
1.29003e-05
2.90895e-06
7.63283e-08
-2.48704e-06
0.0173611
0.0392098
0.0682515
0.125956
0.12856
0.0109008
3.08115e-05
1.0986e-05
1.0921e-05
7.77288e-06
2.24544e-06
1.39498e-06
3.10429e-06
1.20291e-05
2.79168e-06
2.84439e-06
2.38327e-06
5.0545e-08
2.29582e-06
0.01759
0.0755453
0.0609153
0.0754667
0.0148985
0.000353448
0.00034858
0.000252862
0.000106322
9.0593e-06
4.27472e-06
4.1134e-07
1.39499e-07
7.23902e-08
5.6352e-08
5.3093e-08
5.26882e-08
5.26882e-08
0.00430229
0.0143834
0.0757572
0.007538
0.00273048
0.000337446
0.000355433
0.000128856
2.61631e-06
1.11684e-05
2.32686e-05
1.9832e-05
1.32481e-06
1.7074e-07
8.68728e-08
6.06451e-08
5.4345e-08
5.3093e-08
5.26882e-08
0.0101141
0.0114291
0.0754157
0.000152694
7.96402e-05
0.000214825
8.91572e-05
1.37274e-06
2.29873e-07
4.65739e-08
2.36896e-08
6.00358e-08
9.54141e-08
1.75754e-07
1.64894e-07
7.85052e-08
5.80614e-08
5.4345e-08
5.32113e-08
0.00910151
0.00830678
0.0596587
1.6061e-05
9.75877e-06
2.37214e-05
8.87888e-06
7.20974e-08
2.40288e-08
1.66057e-08
1.57716e-08
1.92491e-08
1.11833e-07
3.72768e-07
3.38276e-07
5.06921e-07
1.06814e-07
5.80614e-08
5.74527e-08
0.00154579
0.00792357
0.0631698
1.30305e-06
8.7913e-07
8.95595e-07
2.95484e-07
1.13969e-08
1.47529e-08
1.56346e-08
1.57716e-08
1.57716e-08
3.41865e-06
1.44572e-05
4.90823e-06
2.25701e-06
1.66595e-07
7.17665e-08
9.297e-08
4.69342e-07
0.0540028
0.0923426
8.68932e-08
3.88508e-08
2.58927e-08
4.87936e-09
8.07912e-09
1.18507e-08
1.47605e-08
1.56376e-08
9.70095e-06
8.47381e-05
0.000132598
6.84129e-05
3.22891e-06
3.69637e-07
1.29013e-07
4.51893e-07
4.69898e-06
0.0914873
0.0923426
5.04622e-09
2.10638e-09
3.88939e-10
1.81739e-10
8.64364e-10
1.32568e-08
2.48367e-08
1.92758e-08
4.67874e-05
0.000132598
0.000133362
0.000133835
2.10099e-05
9.08405e-07
4.77002e-07
3.7595e-06
9.37666e-06
0.0529904
0.0923426
3.10789e-10
1.05054e-10
7.56355e-11
1.29794e-10
2.37357e-06
6.9156e-06
2.70485e-06
5.3168e-08
2.4817e-06
0.000107445
0.000134323
0.00013351
3.64567e-05
1.88306e-06
3.17052e-05
0.000319416
4.56796e-05
0.00432431
0.0920393
6.66756e-11
1.61036e-11
4.85914e-11
3.85925e-06
1.70973e-05
1.6958e-05
5.58636e-06
2.31898e-07
4.88486e-07
1.82504e-05
0.00013434
0.000129206
2.04697e-05
3.66718e-06
0.000803934
0.00710407
0.00323616
0.00235748
0.0891505
4.49689e-11
1.08702e-11
7.85839e-06
1.71069e-05
1.70947e-05
7.27298e-06
2.96936e-07
2.88444e-07
3.3275e-07
4.51362e-05
0.000138685
9.95175e-05
2.26474e-05
1.91856e-05
0.00316317
0.00875192
0.00875334
0.00525312
0.0872538
1.2272e-11
1.13174e-11
6.37638e-06
1.0563e-05
2.58901e-06
2.90721e-07
2.8594e-07
2.88443e-07
2.8844e-07
0.000131382
0.000138682
3.84087e-05
2.8096e-05
8.5615e-05
0.00546644
0.00875192
0.00829794
0.00640903
0.0865344
3.10201e-13
1.56783e-07
4.60125e-07
4.01535e-09
9.81747e-10
2.74154e-07
2.84742e-07
2.88042e-07
4.95358e-05
0.000131451
9.25937e-05
3.94468e-05
4.02132e-05
0.00133375
0.00519369
0.00226803
0.000668133
0.00638336
0.0787981
2.88412e-13
7.93825e-08
6.23855e-08
3.90098e-09
9.75977e-10
1.70804e-06
3.17358e-07
2.90958e-07
5.12925e-05
0.000125242
4.0448e-05
4.31569e-05
0.000584234
0.00291286
0.0018224
1.19425e-06
4.07648e-07
0.00207302
0.0118869
1.12116e-09
7.81096e-10
3.98229e-12
2.03694e-12
8.16077e-12
1.27149e-06
3.23604e-06
2.7511e-06
1.06173e-05
1.53634e-05
1.91889e-05
9.75324e-05
0.00214883
0.00275847
1.54483e-06
1.1866e-06
2.87111e-07
4.07648e-07
2.85336e-05
1.35665e-10
4.18352e-11
2.03694e-12
1.81853e-12
2.03694e-12
1.75512e-08
1.22775e-05
5.64527e-06
5.96648e-06
6.6282e-06
1.60608e-05
0.0010314
0.00211316
0.000286789
2.10334e-06
6.56502e-06
2.44525e-07
2.1053e-07
0.0246102
5.42874e-12
5.4572e-12
2.92583e-12
1.70404e-12
1.81853e-12
2.95459e-10
3.32064e-05
5.28217e-05
6.67047e-06
7.20611e-06
1.43004e-05
0.00106051
0.00202757
1.20837e-05
1.12218e-05
6.44004e-06
8.53983e-08
8.53983e-08
0.140861
1.09036e-12
8.33872e-13
8.15112e-14
7.45776e-14
1.02989e-12
1.0829e-05
5.75376e-05
5.77872e-05
1.42658e-05
1.11188e-05
2.55286e-05
0.00122972
0.0019622
1.55149e-05
1.71184e-05
1.79356e-07
8.12961e-08
8.82648e-05
0.147528
6.74956e-14
3.33148e-14
2.71093e-14
3.58579e-14
1.38134e-11
3.85911e-05
5.78062e-05
5.78057e-05
5.70575e-05
1.37581e-05
1.37805e-05
0.00125987
0.00146758
0.000245677
4.16467e-07
9.80549e-08
8.53983e-08
0.000737326
0.147528
9.08922e-15
7.30818e-15
5.33748e-15
1.30364e-13
1.47116e-06
5.26429e-05
5.78075e-05
5.78072e-05
5.78057e-05
1.84723e-05
1.41447e-05
0.000714111
0.000642716
0.000115768
5.69861e-07
1.06366e-07
5.61244e-08
0.00200166
0.147528
2.66536e-15
2.36086e-15
2.82713e-15
2.75176e-12
2.40157e-06
4.93388e-05
5.78074e-05
5.78075e-05
5.78072e-05
2.63439e-05
1.39634e-05
4.63234e-05
5.68965e-05
9.75329e-06
2.78196e-07
1.50843e-07
1.72233e-08
0.00384513
0.146711
2.04396e-15
1.0603e-15
1.38233e-14
7.10289e-11
3.89703e-07
3.4438e-05
5.78074e-05
5.78072e-05
5.77943e-05
1.62267e-05
8.92115e-06
1.29063e-06
1.87852e-06
2.52343e-06
2.15393e-06
3.0785e-07
5.29818e-09
0.00460244
0.0392341
5.19345e-17
-1.60334e-15
5.8563e-13
1.54331e-10
5.78698e-07
7.4071e-06
3.01096e-05
3.72345e-05
1.04583e-05
1.51197e-06
7.60159e-07
8.53852e-07
1.5506e-06
2.19065e-06
1.38816e-06
1.52674e-07
5.19565e-11
0.000174995
1.72778e-14
1.12826e-17
-2.38254e-15
3.75084e-11
3.37595e-09
7.9545e-09
9.88884e-09
1.05308e-07
4.84557e-07
6.5481e-08
6.39061e-08
6.22282e-08
1.05863e-06
2.35012e-06
1.41783e-06
5.76931e-10
7.99905e-12
6.82984e-14
4.84708e-16
-3.86658e-70
3.18589e-21
1.40975e-15
1.80449e-13
5.83834e-33
-2.43264e-34
3.53085e-12
1.512e-10
8.28236e-09
5.43163e-08
5.93834e-08
6.22282e-08
1.36588e-06
2.06496e-06
9.79949e-10
-1.15307e-14
-7.23582e-18
-1.78312e-21
0
-1.24147e-51
)
;

boundaryField
{
    leftWall
    {
        type            zeroGradient;
    }
    rightWall
    {
        type            zeroGradient;
    }
    lowerWall
    {
        type            zeroGradient;
    }
    atmosphere
    {
        type            inletOutlet;
        inletValue      uniform 0;
        value           nonuniform List<scalar> 
46
(
-1.59851e-35
-1.9819e-37
-2.69546e-38
-1.6966e-38
-8.15628e-38
-9.01122e-37
-7.91891e-36
-5.63397e-35
-3.3162e-34
-1.62766e-33
-6.54359e-33
-2.04663e-32
-4.62124e-32
-6.83357e-32
-6.13077e-32
-3.51755e-32
-7.8661e-33
-5.54663e-34
-2.0037e-36
1.13279e-35
3.66572e-34
5.36081e-33
1.029e-31
1.17138e-30
1.81385e-26
2.08659e-23
0
0
0
0
0
0
3.53085e-12
1.512e-10
8.28236e-09
5.43163e-08
5.93834e-08
6.22282e-08
0
0
0
0
0
0
0
0
)
;
    }
    defaultFaces
    {
        type            empty;
    }
}


// ************************************************************************* //
