/*--------------------------------*- C++ -*----------------------------------*\
| =========                 |                                                 |
| \\      /  F ield         | OpenFOAM: The Open Source CFD Toolbox           |
|  \\    /   O peration     | Version:  2206                                  |
|   \\  /    A nd           | Website:  www.openfoam.com                      |
|    \\/     M anipulation  |                                                 |
\*---------------------------------------------------------------------------*/
FoamFile
{
    version     2.0;
    format      ascii;
    arch        "LSB;label=32;scalar=64";
    class       volScalarField;
    location    "0.65";
    object      p;
}
// * * * * * * * * * * * * * * * * * * * * * * * * * * * * * * * * * * * * * //

dimensions      [1 -1 -2 0 0 0 0];

internalField   nonuniform List<scalar> 
2268
(
508.193
507.507
509.632
515.343
526.405
543.528
565.542
588.839
611.215
634.608
658.984
684.188
709.667
735.432
760.12
783.388
804.492
822.818
834.306
836.615
846.361
878.584
911.704
448.875
447.691
449.647
455.244
466.164
483.304
505.725
529.438
552.002
575.465
599.864
625.117
650.718
676.384
701.225
724.741
746.317
766.331
779.815
779.064
779.434
807.542
847.08
388.5
386.958
388.938
394.164
404.587
421.606
444.863
469.514
492.478
516.127
540.641
565.984
591.63
617.244
641.953
665.407
687.257
707.401
722.652
723.506
720.9
742.922
783.566
327.638
325.707
327.55
332.117
341.684
358.454
383.065
409.111
432.876
456.683
481.329
506.821
532.573
558.321
582.916
606.366
628.298
648.206
664.503
670.312
671.338
689.114
725.286
266.915
264.277
265.753
269.499
277.357
294.682
321.095
348.523
373.177
397.188
421.977
447.649
473.678
499.436
524.197
547.807
569.949
590.274
607.761
618.678
627.021
642.12
671.293
206.252
203.323
203.703
206.556
214.28
232.272
259.656
287.77
312.992
337.524
362.579
388.495
414.756
440.732
465.731
489.592
512.106
533.082
552.177
567.29
580.744
595.119
618.96
145.638
143.682
142.637
144.534
153.09
171.643
198.963
226.464
251.729
277.223
302.971
329.3
355.897
382.235
407.515
431.65
454.544
476.214
496.42
514.463
531.305
547.299
568.113
83.579
81.3908
80.498
83.5461
92.9638
111.735
138.271
164.545
189.917
216.353
243.005
269.933
296.983
323.885
349.537
373.984
397.238
419.506
440.556
459.877
480.214
499.659
520.268
1374.57
1365.13
1360.65
1310.64
1139.23
927.922
788.413
731.558
721.056
757.581
858.514
986.197
1066.45
1122.7
1238.05
1502.84
1822
1941.61
1949.39
1369.34
1361.82
1333.85
1196.88
941.996
726.617
651.53
637.667
640.24
678.268
794.433
935.938
1008.19
1053
1130.64
1328.99
1652.05
1859.88
1899.77
1356.82
1360.03
1221.17
885.106
683.208
623.723
608.756
611.035
620.418
652.027
755.08
899.747
959.765
970.627
981.904
1063.36
1375.56
1738.72
1842.52
1342.75
1331.36
1031.07
729.929
645.025
613.718
601.809
602.889
610.221
636.38
738.416
893.987
948.444
957.238
959.323
974.853
1095.19
1516.36
1749.81
1319.56
1280.79
877.288
678.409
622.037
599.927
594.302
598.789
605.984
625.437
722.373
899.375
951.918
958.675
958.168
959.695
980.217
1220.56
1615.45
1278.28
1234.23
796.124
656.12
612.731
595.306
592.576
597.534
607.342
625.434
715.483
899.786
952.272
958.601
957.279
955.87
957.113
1011.24
1455.07
1237.8
1189.18
761.872
646.928
612.067
598.171
595.031
598.567
608.64
651.025
755.528
893.879
944.788
956.976
955.532
953.655
952.697
957.459
1296.29
1209.42
1151.02
790.045
649.413
617.043
606.286
601.451
604.814
642.363
729.278
806.944
883.83
930.034
953.677
952.343
950.965
951.591
957.777
1167.83
25.9167
22.5396
21.3515
26.2005
33.6408
44.0378
57.201
73.7389
95.0112
120.388
148.56
176.947
205.135
233.185
259.336
284.137
307.779
330.998
353.252
375.254
399.112
426.709
453.677
0.764384
0.481143
0.412006
1.72836
4.30123
6.73201
8.69621
11.4502
17.2995
27.1995
43.0767
63.2255
86.4024
111.804
138.545
163.704
186.684
209.943
233.399
256.901
282.983
307.797
340.567
0.352202
0.217306
0.12091
0.141287
0.131805
0.0843821
0.0412318
0.0142316
0.0564252
0.503253
2.9072
7.42928
15.0054
25.7283
41.3398
58.4008
74.8997
93.0093
115.21
137.092
160.574
186.787
221.186
0.0722253
-0.0226366
-0.113378
-0.0829655
-0.0539248
-0.0924297
-0.138675
-0.136179
-0.093934
-0.0831171
-0.0742291
-0.0273264
0.0172925
0.196509
2.09308
6.57471
11.2891
18.2017
28.5928
39.2482
53.2262
69.8275
96.5293
-0.122235
-0.159658
-0.19603
-0.180693
-0.179495
-0.227315
-0.266124
-0.278658
-0.265281
-0.239307
-0.210483
-0.169885
-0.134299
-0.0651776
-0.0168784
0.0306938
0.0903674
0.132022
0.125504
0.62256
3.51151
9.46538
17.7107
-0.296796
-0.299869
-0.323474
-0.338929
-0.346191
-0.361491
-0.375569
-0.373564
-0.363946
-0.351617
-0.335326
-0.310158
-0.277655
-0.249907
-0.217789
-0.157513
-0.0876409
-0.00482468
0.129339
0.340167
0.428686
0.153242
-0.2577
-0.462726
-0.464481
-0.477789
-0.488142
-0.495884
-0.505342
-0.512431
-0.513913
-0.510661
-0.498606
-0.478175
-0.456344
-0.426442
-0.388699
-0.345379
-0.310165
-0.262694
-0.203426
-0.123545
-0.00985472
0.196956
0.421992
0.444011
-0.624179
-0.627416
-0.634337
-0.639682
-0.645342
-0.65234
-0.656461
-0.655912
-0.650577
-0.641464
-0.628299
-0.611412
-0.591098
-0.566494
-0.536402
-0.495233
-0.453187
-0.404263
-0.342518
-0.265316
-0.145081
-0.0520276
-0.109977
-0.783954
-0.786238
-0.790538
-0.794838
-0.798826
-0.802457
-0.804268
-0.803361
-0.799532
-0.792433
-0.782097
-0.768495
-0.751538
-0.730526
-0.706882
-0.681164
-0.654527
-0.625652
-0.594701
-0.568502
-0.542434
-0.499551
-0.527569
-0.942489
-0.944124
-0.946676
-0.949876
-0.952526
-0.954763
-0.95566
-0.954818
-0.952487
-0.946969
-0.939158
-0.929252
-0.917186
-0.903176
-0.887891
-0.872319
-0.857346
-0.843571
-0.831805
-0.825535
-0.851768
-0.898362
-0.967234
-1.09956
-1.10102
-1.10243
-1.10464
-1.10637
-1.1081
-1.10879
-1.10829
-1.10643
-1.10285
-1.09784
-1.0915
-1.08407
-1.07617
-1.06871
-1.06279
-1.05938
-1.06049
-1.06888
-1.08765
-1.14208
-1.24748
-1.37082
-1.25565
-1.25688
-1.25776
-1.25951
-1.26083
-1.26226
-1.26302
-1.26303
-1.26218
-1.26043
-1.25789
-1.25483
-1.25172
-1.24931
-1.24851
-1.25043
-1.2566
-1.26926
-1.29086
-1.32802
-1.4053
-1.52616
-1.63897
-1.41109
-1.41198
-1.41274
-1.41436
-1.41559
-1.41699
-1.41808
-1.41881
-1.41912
-1.41905
-1.41882
-1.41881
-1.41952
-1.42167
-1.42618
-1.43424
-1.44765
-1.46879
-1.50087
-1.55342
-1.63679
-1.75214
-1.8469
-1.56601
-1.56662
-1.56752
-1.56893
-1.57036
-1.57197
-1.57354
-1.57507
-1.57655
-1.57813
-1.58003
-1.58263
-1.58643
-1.59213
-1.60062
-1.61313
-1.63135
-1.65741
-1.69473
-1.75164
-1.837
-1.94572
-2.04402
-1.72047
-1.72091
-1.72196
-1.72336
-1.72501
-1.72694
-1.72906
-1.7314
-1.73401
-1.73707
-1.7408
-1.74559
-1.75188
-1.7603
-1.77168
-1.78712
-1.80805
-1.83623
-1.87478
-1.9297
-2.00623
-2.10462
-2.21006
-1.87447
-1.87486
-1.87601
-1.87752
-1.87942
-1.88172
-1.88438
-1.88748
-1.8911
-1.89542
-1.90068
-1.90722
-1.91547
-1.92596
-1.93939
-1.9567
-1.97906
-2.00785
-2.04536
-2.09556
-2.16202
-2.24702
-2.35015
-2.02797
-2.02841
-2.02963
-2.03128
-2.03344
-2.03611
-2.03929
-2.04306
-2.04754
-2.0529
-2.05939
-2.06732
-2.07706
-2.08906
-2.10392
-2.12238
-2.14537
-2.17403
-2.20999
-2.25574
-2.31417
-2.38806
-2.48083
-2.18094
-2.18146
-2.18274
-2.18456
-2.18696
-2.18997
-2.19361
-2.19796
-2.20315
-2.20935
-2.21679
-2.22576
-2.23659
-2.24965
-2.26544
-2.28454
-2.30768
-2.33577
-2.37
-2.41203
-2.46393
-2.52805
-2.60652
-2.33334
-2.33393
-2.33528
-2.33725
-2.33987
-2.34318
-2.3472
-2.35203
-2.35778
-2.36463
-2.37279
-2.38251
-2.39408
-2.40784
-2.42417
-2.44354
-2.4665
-2.49378
-2.52624
-2.56497
-2.61126
-2.66659
-2.73174
-2.48515
-2.48576
-2.48718
-2.48928
-2.49209
-2.49564
-2.49997
-2.50517
-2.51135
-2.51867
-2.52733
-2.53756
-2.5496
-2.56375
-2.58031
-2.59966
-2.62224
-2.64858
-2.67935
-2.71528
-2.75713
-2.80579
-2.86175
-2.63625
-2.63692
-2.63839
-2.64059
-2.64354
-2.64729
-2.65185
-2.65732
-2.6638
-2.67144
-2.68042
-2.69094
-2.70322
-2.7175
-2.73404
-2.75315
-2.77518
-2.80054
-2.82974
-2.86336
-2.90196
-2.94619
-2.99706
-2.78663
-2.78737
-2.78886
-2.79113
-2.79418
-2.79806
-2.80279
-2.80844
-2.8151
-2.82293
-2.83207
-2.8427
-2.85502
-2.86923
-2.88554
-2.90423
-2.92557
-2.94991
-2.97766
-3.00931
-3.04537
-3.08646
-3.13379
-2.93628
-2.93705
-2.93855
-2.94087
-2.94397
-2.94792
-2.95274
-2.95849
-2.96525
-2.97314
-2.9823
-2.9929
-3.0051
-3.01907
-3.035
-3.05312
-3.07365
-3.09691
-3.12322
-3.15305
-3.18685
-3.22523
-3.26944
-3.08517
-3.08596
-3.08745
-3.08978
-3.0929
-3.09687
-3.10171
-3.10747
-3.11423
-3.12209
-3.13117
-3.14161
-3.15355
-3.16714
-3.18256
-3.19997
-3.2196
-3.24171
-3.26649
-3.29456
-3.32617
-3.36191
-3.40276
-3.2333
-3.23408
-3.23555
-3.23787
-3.24097
-3.24491
-3.24971
-3.25541
-3.26208
-3.26982
-3.27872
-3.28891
-3.30044
-3.31356
-3.32836
-3.34493
-3.36357
-3.38443
-3.40775
-3.43394
-3.46327
-3.49624
-3.53357
-3.38066
-3.38144
-3.38285
-3.38516
-3.38818
-3.39205
-3.39675
-3.40232
-3.40884
-3.41637
-3.42502
-3.4349
-3.44582
-3.45844
-3.47253
-3.48824
-3.50578
-3.52532
-3.54707
-3.5713
-3.59829
-3.62841
-3.66221
-3.52726
-3.52802
-3.52937
-3.53169
-3.53455
-3.53831
-3.54287
-3.54823
-3.55453
-3.56178
-3.57007
-3.57947
-3.59003
-3.60194
-3.61523
-3.63
-3.64638
-3.66454
-3.68465
-3.7069
-3.73152
-3.7588
-3.78912
-3.67314
-3.67389
-3.67519
-3.67733
-3.68012
-3.68372
-3.68808
-3.69324
-3.69924
-3.70615
-3.71402
-3.72293
-3.73293
-3.74412
-3.75657
-3.77033
-3.78552
-3.80227
-3.82071
-3.84099
-3.86327
-3.88777
-3.91475
-3.8183
-3.81904
-3.82026
-3.82226
-3.82492
-3.82832
-3.83245
-3.83734
-3.84302
-3.84954
-3.85694
-3.8653
-3.87467
-3.88511
-3.89666
-3.90938
-3.92335
-3.93868
-3.95547
-3.97381
-3.99382
-4.01565
-4.03947
-3.96277
-3.96349
-3.96461
-3.96649
-3.96898
-3.97217
-3.97604
-3.98063
-3.98594
-3.99203
-3.99892
-4.00669
-4.01537
-4.02501
-4.03564
-4.04729
-4.06004
-4.07395
-4.08911
-4.10557
-4.1234
-4.14269
-4.16357
-4.10657
-4.10727
-4.1083
-4.11004
-4.11235
-4.11532
-4.11891
-4.12315
-4.12807
-4.13369
-4.14005
-4.14719
-4.15515
-4.16396
-4.17365
-4.18423
-4.19575
-4.20827
-4.22184
-4.23648
-4.25224
-4.26916
-4.28731
-4.24977
-4.25043
-4.25136
-4.25298
-4.25509
-4.25781
-4.2611
-4.26499
-4.26949
-4.27462
-4.28042
-4.28691
-4.29413
-4.30209
-4.31082
-4.32033
-4.33064
-4.34179
-4.35381
-4.36673
-4.38054
-4.39526
-4.41092
-4.39239
-4.393
-4.39385
-4.39533
-4.39724
-4.3997
-4.40267
-4.4062
-4.41026
-4.4149
-4.42012
-4.42595
-4.43241
-4.43952
-4.4473
-4.45574
-4.46486
-4.47467
-4.48521
-4.49647
-4.50846
-4.52115
-4.53457
-4.53449
-4.53505
-4.53582
-4.53714
-4.53885
-4.54106
-4.5437
-4.54685
-4.55047
-4.5546
-4.55923
-4.5644
-4.5701
-4.57637
-4.58319
-4.59058
-4.59854
-4.60708
-4.61619
-4.62589
-4.63616
-4.64699
-4.6584
-4.67613
-4.67662
-4.67732
-4.67849
-4.67999
-4.68193
-4.68425
-4.68701
-4.69019
-4.6938
-4.69786
-4.70237
-4.70733
-4.71275
-4.71865
-4.72501
-4.73185
-4.73915
-4.7469
-4.75512
-4.7638
-4.77293
-4.78253
-4.81737
-4.81778
-4.8184
-4.81942
-4.82071
-4.82239
-4.82438
-4.82675
-4.82949
-4.83259
-4.83608
-4.83994
-4.84417
-4.84878
-4.85378
-4.85915
-4.8649
-4.87102
-4.8775
-4.88434
-4.89154
-4.89911
-4.90707
-4.95824
-4.95855
-4.9591
-4.95997
-4.96105
-4.96246
-4.96413
-4.96613
-4.96842
-4.97102
-4.97395
-4.97717
-4.9807
-4.98453
-4.98866
-4.99309
-4.99781
-5.00282
-5.0081
-5.01367
-5.01951
-5.02566
-5.03214
-5.0988
-5.09901
-5.09948
-5.1002
-5.10109
-5.10224
-5.10359
-5.10521
-5.10706
-5.10918
-5.11154
-5.11415
-5.11699
-5.12007
-5.12338
-5.12691
-5.13067
-5.13464
-5.13882
-5.1432
-5.14781
-5.15267
-5.15782
-5.23913
-5.23925
-5.23964
-5.2402
-5.24089
-5.24179
-5.24283
-5.24408
-5.2455
-5.24713
-5.24895
-5.25095
-5.25314
-5.2555
-5.25802
-5.26071
-5.26355
-5.26655
-5.2697
-5.273
-5.27647
-5.28014
-5.28407
-5.37929
-5.37931
-5.37962
-5.38003
-5.38052
-5.38116
-5.38189
-5.38278
-5.38378
-5.38493
-5.38622
-5.38764
-5.38918
-5.39084
-5.39261
-5.39449
-5.39647
-5.39856
-5.40075
-5.40304
-5.40545
-5.40801
-5.41078
-5.51928
-5.51923
-5.51945
-5.5197
-5.51999
-5.52037
-5.52081
-5.52133
-5.52193
-5.52261
-5.52337
-5.52421
-5.52513
-5.52611
-5.52716
-5.52826
-5.52943
-5.53065
-5.53193
-5.53326
-5.53467
-5.53618
-5.53782
-5.65918
-5.65911
-5.6592
-5.65928
-5.65938
-5.6595
-5.65964
-5.65982
-5.66001
-5.66024
-5.66049
-5.66077
-5.66107
-5.66139
-5.66174
-5.6621
-5.66248
-5.66287
-5.66328
-5.66371
-5.66416
-5.66465
-5.66518
531.617
612.556
715.919
831.349
411.169
478.711
559.257
673.598
276.588
334.301
382.378
385.697
150.316
206.355
211.364
103.225
43.2428
99.8004
96.5349
36.7537
4.25436
34.2087
62.0914
47.2655
1.27778
8.55771
52.9898
63.9627
-0.36613
0.99634
35.2136
62.2455
-0.938261
-0.302557
13.702
20.8721
-1.058
-0.77317
0.713101
-8.73204
-1.26059
-1.54134
-4.17277
-22.3051
-1.56743
-2.16367
-4.94623
-25.7815
-1.83502
-2.56444
-5.05975
-20.8209
-2.10474
-2.73879
-4.496
-14.8417
-2.31151
-2.72924
-3.7907
-9.98092
-2.48627
-2.74986
-3.26679
-5.75014
-2.62434
-2.87682
-3.30369
-4.29624
-2.72565
-2.92507
-3.21875
-3.6351
-2.82459
-2.95847
-3.1355
-3.50401
-2.93837
-3.04265
-3.16633
-3.64189
-3.06803
-3.16947
-3.33324
-3.8401
-3.20129
-3.30513
-3.47695
-3.82045
-3.33245
-3.42792
-3.56789
-3.77809
-3.46008
-3.54419
-3.65704
-3.80394
-3.58516
-3.65891
-3.752
-3.86342
-3.7083
-3.77254
-3.84954
-3.93631
-3.82999
-3.88573
-3.95012
-4.02028
-3.95077
-3.99903
-4.05349
-4.11197
-4.07099
-4.11261
-4.15881
-4.2081
-4.19095
-4.22659
-4.26559
-4.30673
-4.3109
-4.34115
-4.37373
-4.40742
-4.4311
-4.45657
-4.48355
-4.51095
-4.55173
-4.57312
-4.59557
-4.61837
-4.67293
-4.69098
-4.71003
-4.73009
-4.79476
-4.8101
-4.82669
-4.84542
-4.91728
-4.93031
-4.94496
-4.96286
-5.04053
-5.05152
-5.0644
-5.08113
-5.16457
-5.17365
-5.18475
-5.19977
-5.28928
-5.29651
-5.30567
-5.31832
-5.41449
-5.4198
-5.42673
-5.43646
-5.54005
-5.54332
-5.54771
-5.554
-5.66593
-5.66706
-5.66862
-5.67101
1122.85
1079.57
843.188
680.979
634.278
624.196
624.079
657.204
808.256
901.715
898.777
882.736
912.662
938.112
943.907
945.712
948.833
958.299
1045.76
815.617
904.364
824.444
727.155
671.141
627.108
871.399
1095.76
1090.12
1019.77
958.903
926.699
938.331
936.73
931.789
932.67
936.216
944.442
982.414
392.586
393.827
446.224
596.053
816.586
1111.51
1172.73
1165.71
1112.94
1055.25
988.067
953.498
927.329
921.179
922.399
923.59
923.919
922.216
945.588
-5.96739
-69.8577
11.1199
302.523
741.489
1060.14
1158.45
1137.87
1091.61
1029.73
968.092
934.339
922.807
920.419
919.818
919.949
919.237
912.554
926.934
0.659712
-32.6263
-54.3522
78.6456
444.331
756.393
933.336
1014.98
985.122
936.38
906.85
891.429
901.138
911.097
916.063
918.32
917.867
912.097
920.424
23.6834
-0.855574
-39.9753
-22.191
114.598
339.151
518.743
617.934
663.691
667.997
662.875
684.938
740.921
812.069
854.838
882.214
905.629
903.286
918.474
28.4638
-7.86018
-67.8872
-111.651
-107.306
29.6084
184.434
202.783
281.276
354.281
385.221
405.045
449.696
508.941
566.821
655.288
811.23
861.5
875.523
10.626
-23.3752
-74.2647
-134.136
-153.997
-57.7777
56.8787
58.8409
71.7562
128.004
253.751
334.805
377.858
396.215
407.131
480.177
679.107
799.374
783.823
-14.392
-29.9167
-49.3921
-73.1314
-86.4775
-12.5007
32.4642
32.069
30.0429
33.3326
155.356
294.496
355.825
382.769
409.882
482.01
624.268
764.64
720.29
-24.6909
-28.7894
-32.2667
-34.1337
-34.3047
21.6868
23.6067
20.4856
18.1762
10.4696
35.723
198.661
301.269
347.054
397.944
508.63
668.778
747.762
693.496
-23.8793
-24.2516
-24.4743
-24.299
-22.4651
20.0744
16.2464
12.8176
10.2369
2.38175
-12.0239
63.2959
184.088
257.924
316.952
414.708
543.622
605.001
567.755
-19.6529
-19.663
-19.9032
-20.0601
-18.5647
12.3658
8.94513
5.08146
3.13158
0.0192803
-5.72496
1.40238
47.5929
108.952
160.862
226.631
327.766
405.895
397.078
-15.2448
-15.9422
-16.498
-17.2671
-17.1485
2.67937
1.51044
0.296973
-0.461739
-1.41904
-2.37674
-3.38061
1.5265
15.833
21.7209
37.1953
95.907
185.408
216.029
-12.1389
-12.9732
-13.7789
-14.8223
-13.2523
1.00988
-2.56763
-2.31084
-2.51478
-2.65589
-2.56129
-2.27511
-1.79932
-1.14356
-0.0694041
2.43074
11.3544
38.9789
105.61
-10.1059
-10.7738
-11.8468
-16.0904
-5.43068
-2.54972
-3.44773
-3.5769
-3.66473
-3.4792
-3.13057
-2.54129
-1.82596
-1.10787
-0.468821
0.140573
1.80648
9.81479
50.5995
-8.44958
-9.62787
-12.9734
-5.58542
0.671023
-3.98426
-3.86345
-4.04947
-4.15005
-3.82042
-3.36475
-2.74644
-2.07372
-1.45881
-0.963665
-0.722418
-0.303469
3.16732
19.1813
-5.47145
-11.7608
-6.19526
-1.47345
-3.93607
-3.73358
-3.76261
-4.04243
-4.18416
-3.88743
-3.41189
-2.85855
-2.29815
-1.8306
-1.43395
-1.33815
-1.202
-0.65486
6.04599
-3.43456
-3.9685
-1.89812
-3.98703
-3.94729
-3.79091
-3.74448
-3.89681
-3.98178
-3.75402
-3.32874
-2.86538
-2.42225
-2.04749
-1.73484
-1.60048
-1.37036
-1.45701
2.3074
-4.04393
-3.58146
-5.07727
-4.76716
-4.29517
-3.95096
-3.80032
-3.78617
-3.73721
-3.52889
-3.20632
-2.85882
-2.52314
-2.22571
-1.95816
-1.8116
-1.52977
-1.54214
-0.108424
-5.33527
-6.53188
-5.80351
-5.04897
-4.43166
-4.06201
-3.85476
-3.72181
-3.583
-3.3919
-3.153
-2.89688
-2.64325
-2.41072
-2.19365
-2.05611
-1.87168
-1.58768
-0.980994
-4.91807
-5.43835
-5.20025
-4.76239
-4.35717
-4.06772
-3.86124
-3.69458
-3.53581
-3.36284
-3.16902
-2.96509
-2.76441
-2.58303
-2.42133
-2.31111
-2.32449
-1.88807
-1.30102
-4.31099
-4.58577
-4.58667
-4.41827
-4.20107
-4.0043
-3.83721
-3.68726
-3.54038
-3.38463
-3.21494
-3.03895
-2.86992
-2.72212
-2.60013
-2.50304
-2.57777
-1.93319
-1.07448
-4.02892
-4.19403
-4.2497
-4.19193
-4.07907
-3.95128
-3.82485
-3.70002
-3.57158
-3.43057
-3.27334
-3.1097
-2.9569
-2.82734
-2.72458
-2.62747
-2.62191
-2.54374
-1.5612
-3.95639
-4.05438
-4.09574
-4.07556
-4.01447
-3.93122
-3.83781
-3.73803
-3.62776
-3.4963
-3.34133
-3.17662
-3.02673
-2.90298
-2.80003
-2.7
-2.65129
-2.5432
-1.51509
-3.96174
-4.02193
-4.05106
-4.045
-4.01192
-3.95874
-3.89052
-3.80822
-3.70813
-3.58184
-3.4285
-3.25712
-3.09607
-2.96136
-2.84104
-2.74871
-2.66187
-2.79678
-1.71174
-4.00579
-4.04874
-4.07355
-4.07802
-4.06464
-4.034
-3.98083
-3.90525
-3.81295
-3.69842
-3.55006
-3.37352
-3.2008
-3.05127
-2.90696
-2.79653
-2.67661
-3.0959
-2.15715
-4.07487
-4.11024
-4.1356
-4.15178
-4.15561
-4.13676
-4.08913
-4.02306
-3.94678
-3.84984
-3.71277
-3.53938
-3.37339
-3.23435
-3.08619
-3.0676
-2.89263
-2.97965
-2.63426
-4.15787
-4.18976
-4.21804
-4.24211
-4.25403
-4.24022
-4.2025
-4.15792
-4.10767
-4.02975
-3.90729
-3.75088
-3.61438
-3.5307
-3.4933
-3.52858
-3.45785
-3.26958
-3.209
-4.24733
-4.27625
-4.30515
-4.33059
-4.34326
-4.3353
-4.317
-4.30054
-4.27798
-4.22412
-4.12485
-3.99832
-3.89366
-3.85532
-3.9633
-4.24056
-4.10334
-3.85487
-4.27084
-4.33934
-4.36417
-4.38966
-4.41273
-4.42631
-4.42972
-4.43342
-4.43989
-4.43927
-4.41495
-4.35521
-4.26706
-4.18248
-4.19419
-4.40775
-4.78254
-4.70912
-4.64061
-3.61484
-4.43377
-4.45419
-4.47589
-4.49784
-4.51641
-4.53458
-4.55582
-4.57572
-4.59205
-4.60517
-4.61226
-4.59815
-4.55677
-4.63612
-4.96735
-5.08345
-5.0625
-5.34776
-5.04368
-4.53266
-4.55038
-4.57085
-4.59499
-4.62331
-4.65819
-4.69202
-4.71936
-4.74819
-4.80565
-4.90189
-4.9817
-5.06819
-5.20091
-5.30375
-5.3186
-5.29157
-5.47555
-5.30657
-4.63772
-4.65496
-4.67732
-4.70776
-4.75021
-4.80256
-4.8477
-4.88406
-4.92747
-5.03787
-5.26265
-5.491
-5.65301
-5.73765
-5.66355
-5.59674
-5.51238
-5.60961
-5.24567
-4.74903
-4.76775
-4.79447
-4.83399
-4.89214
-4.9603
-5.018
-5.0696
-5.13618
-5.29882
-5.645
-6.07346
-6.31393
-6.25301
-6.09474
-5.93681
-5.79919
-5.79995
-5.27749
-4.86514
-4.88611
-4.9175
-4.96587
-5.03724
-5.11765
-5.18896
-5.25874
-5.34897
-5.52639
-5.92166
-6.52343
-6.9039
-6.72148
-6.43222
-6.18894
-5.98638
-6.00543
-5.47339
-4.98316
-5.00561
-5.03976
-5.09346
-5.17129
-5.25866
-5.34339
-5.41985
-5.50923
-5.69198
-6.05344
-6.65934
-7.12792
-6.91322
-6.537
-6.26677
-6.06998
-6.091
-5.52328
-5.10098
-5.12317
-5.15667
-5.20949
-5.28439
-5.36793
-5.45903
-5.53267
-5.60586
-5.73408
-5.98153
-6.405
-6.71606
-6.63982
-6.36054
-6.16419
-6.03506
-6.16737
-5.99658
-5.21787
-5.23781
-5.26704
-5.31193
-5.37725
-5.44789
-5.52433
-5.58587
-5.626
-5.6704
-5.77043
-5.96524
-6.13197
-6.16958
-6.05856
-5.96711
-5.8925
-6.06872
-6.19324
-5.33359
-5.34982
-5.37271
-5.40697
-5.45183
-5.50041
-5.54835
-5.59037
-5.60241
-5.58011
-5.57784
-5.63781
-5.7488
-5.83372
-5.84203
-5.8391
-5.80299
-5.86094
-3.37589
-5.44808
-5.45981
-5.47532
-5.49741
-5.52454
-5.55221
-5.57775
-5.59436
-5.58641
-5.55003
-5.51215
-5.52526
-5.60041
-5.6891
-5.75769
-5.82514
-5.86128
-5.93022
-5.8594
-5.5614
-5.56824
-5.57681
-5.58791
-5.60092
-5.6136
-5.62329
-5.62632
-5.616
-5.59235
-5.56316
-5.56972
-5.60877
-5.67738
-5.76523
-5.85524
-5.91513
-5.97218
-5.98458
-5.67384
-5.67621
-5.6786
-5.68079
-5.68277
-5.68558
-5.68935
-5.69119
-5.68831
-5.67991
-5.66692
-5.66182
-5.6834
-5.75471
-5.85374
-5.94595
-6.00573
-6.06748
-6.05069
)
;

boundaryField
{
    leftWall
    {
        type            calculated;
        value           nonuniform List<scalar> 
50
(
508.193
448.875
388.5
327.638
266.915
206.252
145.638
83.579
25.9167
0.764384
0.352202
0.0722253
-0.122235
-0.296796
-0.462726
-0.624179
-0.783954
-0.942489
-1.09956
-1.25565
-1.41109
-1.56601
-1.72047
-1.87447
-2.02797
-2.18094
-2.33334
-2.48515
-2.63625
-2.78663
-2.93628
-3.08517
-3.2333
-3.38066
-3.52726
-3.67314
-3.8183
-3.96277
-4.10657
-4.24977
-4.39239
-4.53449
-4.67613
-4.81737
-4.95824
-5.0988
-5.23913
-5.37929
-5.51928
-5.65918
)
;
    }
    rightWall
    {
        type            calculated;
        value           nonuniform List<scalar> 
50
(
1949.39
1899.77
1842.52
1749.81
1615.45
1455.07
1296.29
1167.83
1045.76
982.414
945.588
926.934
920.424
918.474
875.523
783.823
720.29
693.496
567.755
397.078
216.029
105.61
50.5995
19.1813
6.04599
2.3074
-0.108424
-0.980994
-1.30102
-1.07448
-1.5612
-1.51509
-1.71174
-2.15715
-2.63426
-3.209
-4.27084
-3.61484
-5.04368
-5.30657
-5.24567
-5.27749
-5.47339
-5.52328
-5.99658
-6.19324
-3.37589
-5.8594
-5.98458
-6.05069
)
;
    }
    lowerWall
    {
        type            calculated;
        value           nonuniform List<scalar> 
62
(
537.622
536.936
539.062
544.772
555.834
572.957
594.972
618.268
640.645
664.037
688.414
713.617
739.097
764.861
789.549
812.817
833.913
851.187
861.911
865.033
875.758
907.982
941.102
911.704
847.08
783.566
725.286
671.293
618.96
568.113
520.268
594.208
675.12
778.488
893.9
1374.57
1369.34
1356.82
1342.75
1319.56
1278.28
1237.8
1209.42
1376.41
1366.97
1368.62
1337.27
1165.87
954.556
815.047
758.191
747.688
784.208
885.128
1012.8
1093.06
1149.32
1264.69
1529.5
1848.8
1966.88
1973.72
)
;
    }
    atmosphere
    {
        type            calculated;
        value           nonuniform List<scalar> 
46
(
-5.72904
-5.72904
-5.72904
-5.72904
-5.72904
-5.72904
-5.72904
-5.72904
-5.72904
-5.72904
-5.72904
-5.72904
-5.72904
-5.72904
-5.72904
-5.72904
-5.72904
-5.72904
-5.72904
-5.72904
-5.72904
-5.72904
-5.72904
-5.72904
-5.72904
-5.72904
-5.72927
-5.72981
-5.73009
-5.73001
-5.72963
-5.7292
-5.72904
-5.72904
-5.72909
-5.72935
-5.72938
-5.7294
-5.7324
-5.76002
-5.83431
-5.93588
-6.02688
-6.0737
-6.16019
-6.03434
)
;
    }
    defaultFaces
    {
        type            empty;
    }
}


// ************************************************************************* //
