/*--------------------------------*- C++ -*----------------------------------*\
| =========                 |                                                 |
| \\      /  F ield         | OpenFOAM: The Open Source CFD Toolbox           |
|  \\    /   O peration     | Version:  2206                                  |
|   \\  /    A nd           | Website:  www.openfoam.com                      |
|    \\/     M anipulation  |                                                 |
\*---------------------------------------------------------------------------*/
FoamFile
{
    version     2.0;
    format      ascii;
    arch        "LSB;label=32;scalar=64";
    class       volScalarField;
    location    "0.65";
    object      p_rgh;
}
// * * * * * * * * * * * * * * * * * * * * * * * * * * * * * * * * * * * * * //

dimensions      [1 -1 -2 0 0 0 0];

internalField   nonuniform List<scalar> 
2268
(
537.622
536.936
539.062
544.772
555.834
572.957
594.972
618.268
640.645
664.037
688.414
713.617
739.097
764.861
789.549
812.817
833.913
851.187
861.911
865.033
875.758
907.982
941.102
537.163
535.979
537.935
543.532
554.452
571.593
594.014
617.726
640.29
663.753
688.152
713.405
739.006
764.672
789.513
813.03
834.605
853.585
862.627
861.52
865.884
895.061
935.274
535.647
534.104
536.085
541.311
551.734
568.753
592.01
616.661
639.625
663.273
687.788
713.131
738.777
764.391
789.1
812.554
834.404
854.547
867.722
860.933
858.327
880.352
930.555
533.643
531.713
533.555
538.122
547.69
564.459
589.071
615.116
638.882
662.689
687.335
712.826
738.578
764.326
788.921
812.372
834.303
854.212
870.508
873.146
863.735
885.591
930.735
531.779
529.141
530.618
534.363
542.221
559.546
585.96
613.387
638.042
662.053
686.841
712.514
738.542
764.301
789.062
812.672
834.813
855.138
872.625
883.542
883.686
906.984
936.155
529.975
527.046
527.426
530.279
538.003
555.995
583.379
611.493
636.715
661.247
686.302
712.218
738.479
764.455
789.455
813.315
835.829
856.805
875.9
891.013
904.467
918.842
942.677
528.22
526.264
525.219
527.115
535.67
554.221
581.542
609.046
634.31
659.805
685.553
711.882
738.478
764.817
790.097
814.232
837.126
858.796
879.002
897.045
913.887
929.88
950.674
520.48
509.412
496.626
490.953
499.714
523.613
567.839
605.581
631.357
657.794
684.446
711.373
738.423
765.326
790.978
815.425
838.679
860.947
881.997
901.317
921.654
941.099
961.686
1376.41
1366.97
1368.62
1337.27
1165.87
954.556
815.047
758.191
747.688
784.208
885.128
1012.8
1093.06
1149.32
1264.69
1529.5
1848.8
1966.88
1973.72
1378.11
1371.54
1403.61
1276.78
1021.9
801.434
721.517
706.517
708.105
746.146
866.435
1012.01
1087
1132.67
1210.55
1409.62
1733.47
1941.45
1981.33
1379.45
1410.56
1337.21
994.784
709.352
637.311
619.485
619.729
628.126
659.617
767.233
924.299
1003.38
1030.88
1061.12
1169.01
1510.33
1874.66
1978.46
1379.29
1454.29
1155.52
759.576
647.261
615.036
603.138
605.079
613.243
639.788
741.728
896.3
950.45
958.868
961.053
981.369
1189.94
1706.66
1940.13
1365.37
1417.67
1029.95
681.304
623.746
601.289
595.61
600.737
611.226
630.788
729.548
902.463
954.013
960.714
960.152
961.715
998.873
1436.82
1860.12
1319.99
1374.27
873.254
658.267
614.396
596.906
594.176
599.133
609.231
687.816
869.15
994.1
956.717
961.026
959.703
958.295
960.586
1145.93
1754
1282.51
1310.26
855.333
651.646
613.997
600.082
596.921
600.671
645.246
900.078
1068.82
1185.52
1053.58
960.974
958.397
956.572
955.8
1083.76
1649.19
1261.76
1203.36
915.514
659.164
619.566
608.513
603.878
618.839
886.181
1090.76
1170.81
1247.5
1169.5
1015.8
958.495
954.545
955.493
1114.74
1573.99
241.884
215.916
197.845
209.785
238.39
296.879
388.863
492.92
580.517
648.812
682.027
710.414
738.602
766.653
792.803
817.604
841.246
864.465
886.719
908.721
932.579
960.176
987.144
1.42382
1.14748
1.61664
19.8254
49.7119
77.6331
99.1899
129.967
197.523
306.375
448.562
572.145
670.916
766.043
797.207
822.366
845.346
868.605
892.061
915.562
941.645
966.459
999.229
1.13612
1.00117
0.904773
0.925144
0.915668
0.868326
0.825436
0.798096
0.848438
7.05607
41.998
101.299
199.874
342.043
521.139
655.708
746.358
854.745
896.721
920.796
944.42
970.633
1005.04
0.981281
0.886427
0.795683
0.826087
0.855127
0.816624
0.770385
0.772872
0.815117
0.825934
0.834823
0.88173
0.926399
1.10599
35.0247
104.651
172.611
279.521
441.618
570.565
678.346
835.588
951.196
0.912011
0.874596
0.838223
0.853557
0.85475
0.806931
0.768121
0.755587
0.768965
0.794939
0.823763
0.864362
0.899952
0.969131
1.01786
1.06617
1.12474
1.16681
1.16441
1.6927
65.7021
199.987
383.367
0.862644
0.859571
0.835967
0.820513
0.813249
0.797949
0.78387
0.785876
0.795528
0.807912
0.824131
0.849288
0.894122
0.96515
0.997682
1.03465
1.07183
1.15476
1.28939
1.50483
1.62833
1.5246
1.97703
0.821908
0.820153
0.806845
0.796492
0.78875
0.779292
0.772203
0.770721
0.774033
0.786175
0.806551
0.828345
0.866483
0.927248
0.952335
0.974659
1.02195
1.08125
1.18158
1.36234
1.62708
1.86867
2.01265
0.78565
0.782413
0.775492
0.770146
0.764487
0.757489
0.753368
0.753917
0.759291
0.768526
0.781693
0.798586
0.819263
0.843335
0.873427
0.914596
0.956644
1.00558
1.07134
1.22894
1.6209
1.70389
1.65906
0.75107
0.748786
0.744485
0.740185
0.736198
0.732566
0.730755
0.731662
0.735495
0.742635
0.753066
0.766948
0.784399
0.804557
0.828142
0.853859
0.880549
0.909824
0.940801
0.991506
1.28779
1.46492
1.51896
0.717729
0.716094
0.713542
0.710341
0.707692
0.705455
0.704557
0.7054
0.707731
0.71325
0.721081
0.731073
0.743426
0.757109
0.772327
0.787899
0.803055
0.820957
0.834314
0.840597
0.972631
1.21625
1.0479
0.685855
0.684391
0.682982
0.680776
0.679038
0.677311
0.676623
0.677121
0.678987
0.682561
0.687576
0.693917
0.701347
0.709248
0.716699
0.722624
0.726636
0.727324
0.717748
0.716553
0.994413
1.02362
0.786179
0.65496
0.653727
0.652849
0.651095
0.64978
0.648348
0.647588
0.647577
0.648423
0.650181
0.652725
0.655786
0.658895
0.661302
0.662099
0.660181
0.654033
0.641368
0.619803
0.617979
0.894901
0.900759
0.773219
0.624715
0.62382
0.623066
0.62144
0.620209
0.618808
0.617721
0.616991
0.616684
0.616752
0.616987
0.617002
0.616293
0.614132
0.609626
0.601562
0.588148
0.567014
0.534943
0.486413
0.711125
0.830277
0.580306
0.594981
0.594378
0.593471
0.592067
0.590639
0.589028
0.587456
0.585928
0.584443
0.582868
0.580971
0.578373
0.574566
0.568868
0.560375
0.54787
0.52965
0.503587
0.466271
0.409915
0.371021
0.355008
0.22076
0.565724
0.565282
0.564234
0.562831
0.561183
0.559249
0.557131
0.554794
0.552176
0.549123
0.545386
0.540607
0.534312
0.525889
0.514514
0.499073
0.478141
0.449962
0.411414
0.356524
0.280068
0.182582
0.081838
0.53692
0.536522
0.535377
0.533867
0.531968
0.529668
0.527001
0.523906
0.520284
0.515967
0.510705
0.504161
0.495912
0.485422
0.471995
0.454684
0.432325
0.403532
0.36602
0.315827
0.249376
0.164524
0.0627555
0.50861
0.508174
0.506951
0.505295
0.503137
0.50047
0.497288
0.493516
0.489038
0.483676
0.477187
0.46926
0.459523
0.447516
0.43266
0.414204
0.391209
0.362545
0.326592
0.28084
0.222415
0.14856
0.056207
0.480836
0.480319
0.47903
0.477215
0.47481
0.471803
0.468166
0.463814
0.458627
0.452427
0.444982
0.436012
0.425189
0.41212
0.396331
0.377236
0.354095
0.326007
0.291771
0.249749
0.197843
0.133734
0.0553883
0.453628
0.453036
0.451685
0.449717
0.447094
0.443789
0.439766
0.434939
0.429188
0.422342
0.414183
0.40446
0.392885
0.379128
0.362796
0.343434
0.320464
0.293189
0.260724
0.221998
0.175708
0.12038
0.0552556
0.427016
0.426405
0.424983
0.42288
0.420072
0.416521
0.412189
0.40699
0.400812
0.393492
0.384831
0.374603
0.362559
0.348417
0.331856
0.312502
0.289921
0.263579
0.232816
0.196887
0.155031
0.106378
0.050423
0.401104
0.400436
0.398971
0.396764
0.393813
0.390072
0.385505
0.380034
0.373555
0.365916
0.356937
0.346416
0.334136
0.31986
0.303322
0.284207
0.26218
0.236819
0.207619
0.173998
0.135397
0.0911634
0.0402979
0.375922
0.375182
0.373696
0.371419
0.368369
0.364495
0.359767
0.354117
0.347448
0.339625
0.330485
0.319849
0.307529
0.293323
0.277008
0.258318
0.236977
0.21264
0.184893
0.153245
0.117184
0.0760926
0.0287592
0.351468
0.350696
0.349198
0.346879
0.343772
0.339823
0.335004
0.32926
0.322501
0.314611
0.305445
0.294842
0.282645
0.268677
0.252744
0.23463
0.214093
0.190839
0.164526
0.134694
0.1009
0.0625129
0.0183069
0.327771
0.326985
0.325492
0.32316
0.320039
0.316068
0.311228
0.305468
0.29871
0.290855
0.281773
0.271329
0.259393
0.245798
0.230381
0.212972
0.193337
0.171231
0.146455
0.118383
0.0867744
0.051027
0.0101854
0.30484
0.304053
0.302585
0.300262
0.297171
0.293226
0.288429
0.282726
0.276051
0.268319
0.259415
0.249229
0.237694
0.224571
0.209773
0.193205
0.174565
0.153709
0.130383
0.1042
0.0748643
0.0418956
0.00456077
0.282673
0.281891
0.280477
0.278167
0.275153
0.271282
0.266583
0.261011
0.254493
0.246963
0.238313
0.228428
0.21751
0.204891
0.190804
0.175088
0.157549
0.138012
0.116261
0.0920323
0.0650422
0.0349161
0.00112363
0.261264
0.260501
0.259155
0.256833
0.253975
0.25021
0.245651
0.240298
0.233999
0.226744
0.218454
0.20905
0.198496
0.186586
0.173295
0.158529
0.142143
0.123987
0.103875
0.0816285
0.0570073
0.0297236
-0.000591588
0.240583
0.239829
0.238528
0.23639
0.233595
0.230003
0.225644
0.220484
0.214478
0.207572
0.1997
0.190794
0.180791
0.169595
0.157154
0.143394
0.128201
0.111452
0.0930052
0.0727294
0.050446
0.0259468
-0.00102861
0.220616
0.219878
0.218659
0.216657
0.213996
0.210594
0.206462
0.201569
0.195892
0.189377
0.181971
0.173615
0.164246
0.153806
0.142257
0.129539
0.115564
0.100234
0.0834446
0.0651016
0.0450922
0.0232686
-0.00055129
0.201342
0.200623
0.199499
0.197623
0.19513
0.191938
0.188064
0.18348
0.178167
0.172083
0.165185
0.157422
0.14874
0.139097
0.128472
0.116816
0.104069
0.0901535
0.0749961
0.0585346
0.0407062
0.0214142
0.000540688
0.182728
0.182033
0.181006
0.179258
0.17695
0.173987
0.170396
0.166149
0.16123
0.155611
0.149254
0.142116
0.134154
0.125341
0.115656
0.105073
0.0935522
0.0810339
0.0674678
0.0528219
0.0370617
0.0201394
0.00198975
0.164732
0.164071
0.163134
0.161521
0.159407
0.156688
0.153401
0.149509
0.145008
0.139875
0.134081
0.12759
0.12037
0.112404
0.103673
0.0941633
0.0838569
0.0727073
0.0606832
0.0477723
0.0339599
0.0192377
0.0035769
0.147306
0.14669
0.145837
0.144366
0.142452
0.139988
0.137018
0.133496
0.129427
0.124794
0.119576
0.113746
0.107282
0.10017
0.0923952
0.0839542
0.0748366
0.0650177
0.0544798
0.0432179
0.0312337
0.0185388
0.00512314
0.130397
0.129837
0.129064
0.127742
0.126032
0.123831
0.121185
0.11804
0.114414
0.110289
0.105652
0.100489
0.0947816
0.0885197
0.0816942
0.0743033
0.0663435
0.0578108
0.0486975
0.0390006
0.0287284
0.0178926
0.00648811
0.11395
0.113456
0.11276
0.111588
0.110087
0.10815
0.10583
0.103069
0.0998909
0.0962764
0.09222
0.0877145
0.0827543
0.0773287
0.071432
0.0650666
0.0582322
0.0509354
0.0431786
0.0349589
0.0262812
0.0171493
0.00755297
0.09791
0.0974989
0.0968782
0.0958561
0.0945624
0.0928904
0.0908975
0.0885214
0.0857904
0.082682
0.0791977
0.0753384
0.0711055
0.066493
0.0614984
0.056124
0.0503723
0.0442538
0.0377761
0.0309362
0.023734
0.0161634
0.00820181
0.0822348
0.0819202
0.0813735
0.0805049
0.0794154
0.0780074
0.0763379
0.0743436
0.0720548
0.0694451
0.066524
0.0632981
0.0597707
0.0559421
0.0518129
0.047384
0.042659
0.0376498
0.0323652
0.0268035
0.0209579
0.0148106
0.00832565
0.0668673
0.0666535
0.0661797
0.0654657
0.0645769
0.0634282
0.0620763
0.0604585
0.0586053
0.0564888
0.0541236
0.051516
0.0486724
0.0455948
0.0422869
0.038752
0.0349937
0.0310227
0.0268459
0.0224611
0.0178538
0.0129975
0.00784535
0.0517257
0.051613
0.0512168
0.0506543
0.0499651
0.0490715
0.048029
0.046781
0.0453571
0.0437292
0.0419103
0.0399045
0.0377201
0.0353623
0.0328385
0.0301533
0.027308
0.0243082
0.0211587
0.0178573
0.0143865
0.0107153
0.00678983
0.0367603
0.0367454
0.0364363
0.0360281
0.0355355
0.0348967
0.0341605
0.033278
0.0322735
0.0311204
0.0298323
0.0284157
0.0268757
0.0252162
0.0234451
0.0215657
0.0195799
0.0174932
0.0153074
0.013017
0.0106047
0.00804126
0.00527826
0.0219638
0.0220141
0.0217976
0.0215522
0.0212604
0.0208782
0.020442
0.0199143
0.0193201
0.0186383
0.017877
0.0170369
0.0161211
0.0151343
0.0140882
0.0129845
0.0118202
0.0105991
0.00932268
0.00798536
0.00657418
0.00506832
0.00343306
0.00726002
0.0073357
0.00724504
0.00716247
0.00706671
0.00693807
0.00679843
0.00662614
0.00643332
0.00620678
0.00595192
0.00567318
0.00537369
0.00504941
0.00470384
0.00434193
0.00396437
0.00357059
0.00315996
0.00273081
0.00227866
0.00179365
0.00125866
1065.03
1145.73
1249.15
1364.42
1069.83
1137.37
1217.91
1332.22
1060.44
1118.15
1166.2
1169.48
1042.83
1084.78
1048.14
778.514
512.647
509.567
386.226
100.026
39.9262
127.746
177.281
74.7502
3.90932
72.024
185.67
97.4345
1.74095
74.9966
180.824
151.872
1.04425
29.1605
172.243
144.154
0.971312
14.4197
166.478
119.414
0.882723
6.28347
115.828
118.639
0.691585
2.83038
103.976
121.104
0.490516
1.54617
99.0877
123.385
0.195201
0.67156
76.5631
110.827
0.00159176
0.838672
50.9663
76.5349
-0.0612889
0.535059
12.4454
25.1828
-0.0803315
-0.186233
-0.400701
0.332461
-0.0622298
-0.250749
-0.422708
2.01374
-0.0372946
-0.167642
-0.291795
6.81283
-0.0261477
-0.128396
-0.148128
4.72291
-0.0306644
-0.131798
-0.269507
-0.434776
-0.0387354
-0.142564
-0.314146
-0.651701
-0.0447026
-0.140176
-0.280111
-0.489537
-0.0471408
-0.131245
-0.244093
-0.390906
-0.0470261
-0.120772
-0.213869
-0.325274
-0.0449673
-0.109211
-0.186209
-0.272982
-0.0414697
-0.0972098
-0.161598
-0.23175
-0.0370498
-0.0853133
-0.139771
-0.198246
-0.0320758
-0.0736965
-0.1199
-0.169188
-0.0268376
-0.0624789
-0.101481
-0.142621
-0.021599
-0.0518457
-0.0844256
-0.118113
-0.016598
-0.0420684
-0.0690571
-0.0964505
-0.0120333
-0.0334312
-0.0558793
-0.0786816
-0.00803945
-0.0260936
-0.0451461
-0.0652023
-0.00468278
-0.0200176
-0.0366061
-0.0553433
-0.00200469
-0.0150373
-0.0296828
-0.0475802
-6.39134e-05
-0.0110463
-0.0239306
-0.0406632
0.00109947
-0.0079831
-0.0190864
-0.0341027
0.00157854
-0.00564995
-0.0148151
-0.0274615
0.00155922
-0.0037456
-0.0106762
-0.0204034
0.00120098
-0.00206768
-0.00646364
-0.0127558
0.000513228
-0.000613772
-0.0021764
-0.00456721
1453.29
1264.81
958.339
689.324
638.738
627.245
641.057
902.847
1229.22
1333.86
1335.28
1325.33
1355.26
1195.38
959.07
950.235
952.946
1136.36
1532.38
1474.22
1543.03
1335.45
1044.68
950.783
1057.8
1384.12
1608.48
1525.56
1171.68
1118.55
1350.22
1416.61
1149.28
936.916
937.243
940.754
1123.74
1549.44
1155.14
1156.51
1206.83
1345.27
1541.9
1625.66
1262.25
1229.04
1175.78
1180.12
1241.13
1222.58
1036.45
927.24
927.841
928.866
929.208
1040.99
1553.79
334.877
205.599
436.367
871.326
1028.7
1179.16
1266.21
1275.03
1274.45
1152.03
1041.68
947.341
930.177
926.822
925.951
926.082
925.365
948.647
1535.56
22.0262
-10.2022
8.12823
236.757
596.506
905.814
1269.03
1671.77
1696.09
1655.36
1530.93
1298.54
1101.17
987.844
958.051
934.412
924.845
919.741
1545.75
43.4817
23.3434
-2.78422
46.4782
366.824
1050.25
1392.44
1523.66
1586.11
1590.66
1585.29
1607.73
1588.54
1415.45
1474.61
1426.11
963.154
913.758
1610.53
44.5273
13.664
-32.5268
32.005
494.952
910.066
1124.55
935.304
1202.66
1376.3
1407.62
1333.89
1059.4
1233.65
1430.63
1515.78
1311.65
889.723
1682.17
23.1208
-7.93438
-48.0254
48.6581
602.188
854.282
608.567
90.2486
310.338
1237.33
1365.43
779.186
613.645
631.649
726.758
1278.34
932.954
910.137
1808.48
-4.50023
-19.9498
-34.2465
49.6402
589.049
894.75
119.876
41.7087
58.3231
721.963
1316.36
832.806
612.052
641.279
678.058
773.799
1072.84
1231.6
2010.58
-16.4072
-20.5654
-22.8293
-3.25686
343.418
728.755
36.6867
25.7029
28.6021
225.751
1171.96
1403.98
910.947
637.101
943.475
1637.99
1973.79
2182.17
2230.1
-16.0942
-16.9481
-16.9715
-14.5794
207.054
523.682
27.0774
15.7537
15.1684
16.9173
495.963
1404.72
1542.2
1511.12
1821.16
2061.56
2194.8
2257.45
2220.25
-12.414
-12.4764
-12.427
-12.0312
161.91
552.754
56.0437
7.11474
5.4459
3.45219
18.7791
867.526
1485.03
1701.28
1821.6
1958.44
2090.67
2173.42
2165.4
-7.75599
-8.45297
-8.84046
-9.30096
255.741
574.704
197.968
2.35521
1.58735
0.615724
-0.4039
-1.50803
148.361
582.858
644.449
681.82
1171.44
1878.85
2099.37
-4.1895
-5.0239
-5.82903
1.98703
530.362
603.601
-0.382796
-0.136647
-0.340404
-0.479884
-0.381448
-0.0880244
0.397686
1.07086
2.2379
5.32239
17.3735
489.693
1978.63
-1.69597
-2.36338
-3.20965
321.543
569.45
352.832
-1.14785
-1.27848
-1.36575
-1.17881
-0.823835
-0.228895
0.489372
1.20863
1.84064
2.55909
4.86357
16.1676
553.323
4.36908
-0.517772
256.461
434.435
439.432
-1.49456
-1.43917
-1.62544
-1.72612
-1.36771
-0.90488
-0.287192
0.372714
0.978307
1.45663
1.69386
2.24044
16.2852
34.6885
32.3563
253.141
387.12
400.218
0.0106286
-1.17467
-1.21273
-1.4931
-1.63597
-1.30834
-0.824919
-0.270962
0.27574
0.738666
1.11
1.19863
1.32828
45.8754
107.942
180.716
333.626
342.62
27.6612
-1.20358
-1.09992
-1.05367
-1.21437
-1.31403
-1.08854
-0.658708
-0.171622
0.246948
0.621847
0.93327
1.06143
1.29751
47.9785
205.853
168.342
209.319
39.1898
-0.996128
-0.537692
-0.459974
-0.717335
-0.97398
-0.938343
-0.740781
-0.418968
-0.0716539
0.263985
0.561408
0.828955
0.975513
13.2356
41.2909
213.6
19.5068
4.32395
-1.90963
-1.10276
-1.14462
-1.14224
-0.910103
-0.741958
-0.613145
-0.475887
-0.240342
0.0155352
0.269086
0.501602
0.718668
0.856205
30.465
34.5747
221.334
-1.41739
-2.15933
-1.51105
-1.4545
-1.31565
-1.02967
-0.823737
-0.657153
-0.498272
-0.32519
-0.131134
0.0727658
0.27319
0.454504
0.616194
0.726411
28.3298
26.3547
182.76
-1.09769
-1.39238
-1.34917
-1.22766
-1.03829
-0.841675
-0.674608
-0.524653
-0.37777
-0.221729
-0.0512056
0.124675
0.294229
0.440767
0.562601
0.659697
5.46854
26.263
201.666
-0.736891
-0.903395
-0.959013
-0.903215
-0.79129
-0.663484
-0.537047
-0.412217
-0.283786
-0.131594
0.061893
0.194173
0.338257
0.460952
0.5634
0.660585
0.667378
178.114
305.022
-0.543157
-0.641303
-0.682711
-0.662604
-0.601498
-0.518235
-0.424817
-0.325038
-0.181739
0.205562
0.52371
0.469578
0.39722
0.511218
0.613353
0.714486
0.777677
312.798
316.742
-0.423584
-0.483783
-0.512927
-0.506868
-0.473777
-0.420558
-0.352294
-0.270021
-0.00461596
0.42498
0.581018
0.754071
0.516329
0.579985
0.698778
0.802712
0.90941
188.041
328.22
-0.342455
-0.38541
-0.410215
-0.414693
-0.392623
-0.345358
-0.307597
-0.241729
-0.140542
0.358124
0.604849
0.778411
0.595945
0.618952
0.872399
2.03576
1.15389
16.393
338.339
-0.286342
-0.32172
-0.347077
-0.348646
-0.302377
-0.28405
-0.279465
-0.233659
-0.156408
0.0077579
0.584196
0.738159
0.492605
0.568049
3.74502
27.608
13.1439
9.73131
338.565
-0.244152
-0.276041
-0.273598
-0.261511
-0.273474
-0.298064
-0.287621
-0.243077
-0.192648
0.0604444
0.54866
0.551933
0.387883
0.458028
12.7878
34.6035
34.6797
21.1828
341.85
-0.208413
-0.237334
-0.240509
-0.249052
-0.293898
-0.295218
-0.276928
-0.260458
-0.237906
0.344901
0.47363
0.195565
0.258614
0.529038
22.132
35.1113
33.4167
26.0437
348.924
-0.175234
-0.199412
-0.223633
-0.248606
-0.262201
-0.264472
-0.268131
-0.274583
-0.0690933
0.295981
0.194084
0.0611436
0.148916
5.51823
21.3618
8.81643
2.23438
26.0779
328.345
-0.144464
-0.164548
-0.186318
-0.208522
-0.227103
-0.237953
-0.265156
-0.285173
-0.082956
0.220795
-0.149633
-0.123922
2.23599
12.1348
7.13097
-0.789028
-0.771454
7.82446
50.1813
-0.118155
-0.135877
-0.15635
-0.180492
-0.208812
-0.23809
-0.26325
-0.292731
-0.286864
-0.323397
-0.402766
-0.137075
8.82281
11.3787
-0.882439
-0.898867
-0.875805
-1.05926
-0.766233
-0.098024
-0.115265
-0.137627
-0.168069
-0.210517
-0.262785
-0.252324
-0.318768
-0.360721
-0.468113
-0.650118
3.72627
8.4702
0.102675
-1.11432
-1.02728
-0.971576
-1.06896
110.905
-0.0841472
-0.102865
-0.129579
-0.169108
-0.22725
-0.295413
-0.198367
-0.158552
-0.440207
-0.600353
-0.913471
3.53363
7.79989
-1.53181
-1.37755
-1.24192
-1.13391
-1.13467
655.831
-0.0750616
-0.0960245
-0.127423
-0.175791
-0.24716
-0.275754
-0.123544
-0.192131
-0.490621
-0.683106
-1.00942
4.15123
7.27589
-1.85715
-1.56023
-1.398
-1.19591
-0.792973
705.28
-0.0678859
-0.0903306
-0.12448
-0.178181
-0.256013
-0.153892
-0.144267
-0.22073
-0.313786
-0.709144
-1.0705
4.44233
4.99372
-0.791583
-1.61968
-1.35101
-1.15429
2.44481
723.807
-0.0605076
-0.0827013
-0.116205
-0.169022
-0.236516
-0.0623788
-0.127479
-0.201114
-0.274311
-0.60059
-0.86984
2.23133
1.56076
-1.01641
-1.3172
-1.12318
-0.994307
8.95233
741.91
-0.0522101
-0.0721455
-0.101372
-0.146262
-0.199194
-0.0276176
-0.0603484
-0.121893
-0.162018
-0.368784
-0.53271
-0.560526
-0.672693
-0.953585
-0.891461
-0.800668
-0.726745
18.9398
756.076
-0.0427327
-0.0589596
-0.0818518
-0.116115
-0.158908
-0.0275282
0.0480518
0.00603576
-0.00607083
-0.203481
-0.239832
-0.34013
-0.448013
-0.529523
-0.539787
-0.546609
-0.512107
23.7564
209.289
-0.032024
-0.0437602
-0.0592664
-0.0813545
-0.105351
-0.0960749
0.00121887
0.0231592
-0.113774
-0.125794
-0.0919839
-0.104586
-0.175969
-0.261198
-0.334129
-0.408262
-0.445224
0.432668
-0.443347
-0.0201479
-0.026989
-0.0355647
-0.0466418
-0.0596269
-0.0722936
-0.0814551
-0.0823896
-0.0743905
-0.0507529
-0.0215642
-0.0226122
-0.0545105
-0.128283
-0.22398
-0.313991
-0.373882
-0.43093
-0.443332
-0.00739929
-0.00976494
-0.0121549
-0.0143508
-0.0163299
-0.0191324
-0.022911
-0.0247053
-0.0215576
-0.0131283
-0.00012515
0.0123516
-0.00526414
-0.0882572
-0.1873
-0.279508
-0.33929
-0.401032
-0.384251
)
;

boundaryField
{
    leftWall
    {
        type            fixedFluxPressure;
        gradient        uniform 0;
        value           nonuniform List<scalar> 
50
(
537.622
537.163
535.647
533.643
531.779
529.975
528.22
520.48
241.884
1.42382
1.13612
0.981281
0.912011
0.862644
0.821908
0.78565
0.75107
0.717729
0.685855
0.65496
0.624715
0.594981
0.565724
0.53692
0.50861
0.480836
0.453628
0.427016
0.401104
0.375922
0.351468
0.327771
0.30484
0.282673
0.261264
0.240583
0.220616
0.201342
0.182728
0.164732
0.147306
0.130397
0.11395
0.09791
0.0822348
0.0668673
0.0517257
0.0367603
0.0219638
0.00726002
)
;
    }
    rightWall
    {
        type            fixedFluxPressure;
        gradient        uniform 0;
        value           nonuniform List<scalar> 
50
(
1973.72
1981.33
1978.46
1940.13
1860.12
1754
1649.19
1573.99
1532.38
1549.44
1553.79
1535.56
1545.75
1610.53
1682.17
1808.48
2010.58
2230.1
2220.25
2165.4
2099.37
1978.63
553.323
34.6885
107.942
205.853
213.6
221.334
182.76
201.666
305.022
316.742
328.22
338.339
338.565
341.85
348.924
328.345
50.1813
-0.766233
110.905
655.831
705.28
723.807
741.91
756.076
209.289
-0.443347
-0.443332
-0.384251
)
;
    }
    lowerWall
    {
        type            fixedFluxPressure;
        gradient        uniform 0;
        value           nonuniform List<scalar> 
62
(
537.622
536.936
539.062
544.772
555.834
572.957
594.972
618.268
640.645
664.037
688.414
713.617
739.097
764.861
789.549
812.817
833.913
851.187
861.911
865.033
875.758
907.982
941.102
941.102
935.274
930.555
930.735
936.155
942.677
950.674
961.686
1065.03
1145.73
1249.15
1364.42
1376.41
1378.11
1379.45
1379.29
1365.37
1319.99
1282.51
1261.76
1376.41
1366.97
1368.62
1337.27
1165.87
954.556
815.047
758.191
747.688
784.208
885.128
1012.8
1093.06
1149.32
1264.69
1529.5
1848.8
1966.88
1973.72
)
;
    }
    atmosphere
    {
        type            totalPressure;
        rho             rho;
        psi             none;
        gamma           1;
        p0              uniform 0;
        value           nonuniform List<scalar> 
46
(
0
0
0
0
0
0
0
0
0
0
0
0
0
0
0
0
0
0
0
0
0
0
0
0
0
0
-0.000230358
-0.000766977
-0.00104505
-0.000965008
-0.000587569
-0.000156967
0
0
0
0
0
0
-0.00336143
-0.030976
-0.10527
-0.206845
-0.297841
-0.34466
-0.431154
-0.305301
)
;
    }
    defaultFaces
    {
        type            empty;
    }
}


// ************************************************************************* //
