/*--------------------------------*- C++ -*----------------------------------*\
| =========                 |                                                 |
| \\      /  F ield         | OpenFOAM: The Open Source CFD Toolbox           |
|  \\    /   O peration     | Version:  2206                                  |
|   \\  /    A nd           | Website:  www.openfoam.com                      |
|    \\/     M anipulation  |                                                 |
\*---------------------------------------------------------------------------*/
FoamFile
{
    version     2.0;
    format      ascii;
    arch        "LSB;label=32;scalar=64";
    class       surfaceScalarField;
    location    "0.65";
    object      phi;
}
// * * * * * * * * * * * * * * * * * * * * * * * * * * * * * * * * * * * * * //

dimensions      [0 3 -1 0 0 0 0];

oriented        oriented;

internalField   nonuniform List<scalar> 
4432
(
-3.35642e-06
3.35642e-06
-6.56812e-06
3.2117e-06
-8.1538e-06
1.58568e-06
-8.63338e-06
4.79584e-07
-8.01366e-06
-6.19722e-07
-5.95976e-06
-2.0539e-06
-2.74753e-06
-3.21223e-06
3.90678e-07
-3.1382e-06
2.43597e-06
-2.04529e-06
3.14275e-06
-7.06764e-07
2.67408e-06
4.68663e-07
1.29962e-06
1.37448e-06
-6.43412e-07
1.94301e-06
-3.0274e-06
2.38401e-06
-5.99482e-06
2.9674e-06
-9.56279e-06
3.568e-06
-1.30482e-05
3.48535e-06
-1.55292e-05
2.48109e-06
-1.93289e-05
3.79961e-06
-2.53628e-05
6.03394e-06
-2.62939e-05
9.3107e-07
-1.6189e-05
-1.01048e-05
-1.6189e-05
-4.10558e-06
7.462e-06
-6.64158e-06
5.7477e-06
-7.68048e-06
2.62459e-06
-8.27885e-06
1.07795e-06
-8.02485e-06
-8.73717e-07
-6.19867e-06
-3.88008e-06
-2.94794e-06
-6.46296e-06
3.61248e-07
-6.44738e-06
2.52648e-06
-4.21053e-06
3.34083e-06
-1.52109e-06
3.2e-06
6.09478e-07
2.51873e-06
2.05577e-06
1.45638e-06
3.00534e-06
1.17565e-07
3.72287e-06
-1.60871e-06
4.69366e-06
-4.21113e-06
6.17045e-06
-8.29122e-06
7.56542e-06
-1.39425e-05
8.13243e-06
-1.9664e-05
9.52108e-06
-2.2646e-05
9.01596e-06
-2.01976e-05
-1.51732e-06
-1.19024e-05
-1.84001e-05
-2.80914e-05
-3.18231e-06
1.06443e-05
-5.16629e-06
7.73169e-06
-6.40716e-06
3.86546e-06
-7.54897e-06
2.21976e-06
-7.85045e-06
-5.72236e-07
-6.37573e-06
-5.3548e-06
-3.2967e-06
-9.54199e-06
-2.97606e-08
-9.7143e-06
2.16601e-06
-6.40631e-06
2.92065e-06
-2.27571e-06
2.6196e-06
9.10509e-07
1.76782e-06
2.90758e-06
7.46183e-07
4.02695e-06
-1.47977e-07
4.61707e-06
-8.03858e-07
5.34951e-06
-1.29601e-06
6.66264e-06
-2.37958e-06
8.64897e-06
-4.99298e-06
1.07459e-05
-8.33212e-06
1.28602e-05
-1.02308e-05
1.09146e-05
-9.47027e-06
-2.27782e-06
-5.30082e-06
-2.25696e-05
-3.33922e-05
-1.7528e-06
1.23971e-05
-2.9897e-06
8.9686e-06
-4.18413e-06
5.05989e-06
-5.28964e-06
3.32528e-06
-5.50475e-06
-3.57125e-07
-4.23384e-06
-6.62569e-06
-2.00056e-06
-1.17753e-05
2.68359e-07
-1.19832e-05
1.81689e-06
-7.95485e-06
2.29688e-06
-2.75568e-06
1.87237e-06
1.335e-06
9.28947e-07
3.85102e-06
-1.55058e-07
5.11093e-06
-1.03476e-06
5.49681e-06
-1.59642e-06
5.91116e-06
-1.51956e-06
6.5858e-06
-6.81609e-07
7.811e-06
2.76555e-07
9.78772e-06
1.39832e-06
1.17384e-05
2.40751e-06
9.90545e-06
1.8243e-06
-1.6946e-06
1.55159e-06
-2.22969e-05
-3.18406e-05
9.58838e-08
1.23012e-05
2.62447e-07
8.80203e-06
-2.54412e-07
5.57675e-06
-3.43724e-07
3.41459e-06
5.2229e-07
-1.22314e-06
1.64491e-06
-7.7483e-06
2.20773e-06
-1.23381e-05
2.29993e-06
-1.20754e-05
2.06016e-06
-7.71508e-06
1.64531e-06
-2.34082e-06
9.51775e-07
2.02852e-06
-4.44459e-09
4.80727e-06
-9.77828e-07
6.08429e-06
-1.75113e-06
6.27015e-06
-2.20696e-06
6.36697e-06
-2.20867e-06
6.58754e-06
-1.25103e-06
6.85335e-06
9.27007e-07
7.60971e-06
4.57008e-06
8.09537e-06
8.11677e-06
6.35877e-06
8.33649e-06
-1.9143e-06
5.03018e-06
-1.89906e-05
-2.68104e-05
2.58861e-06
9.71263e-06
4.70782e-06
6.68282e-06
6.08802e-06
4.19654e-06
7.855e-06
1.64762e-06
9.77398e-06
-3.14212e-06
1.01834e-05
-8.15773e-06
8.55572e-06
-1.07104e-05
5.85544e-06
-9.37512e-06
3.18622e-06
-5.04588e-06
1.28169e-06
-4.36279e-07
-1.41849e-09
3.31161e-06
-1.04996e-06
5.85583e-06
-1.93479e-06
6.9691e-06
-2.46311e-06
6.79849e-06
-2.688e-06
6.59185e-06
-2.5744e-06
6.47396e-06
-1.86916e-06
6.14811e-06
-7.12155e-08
5.81178e-06
3.23176e-06
4.7924e-06
7.15904e-06
2.43149e-06
8.52584e-06
-3.28109e-06
5.55167e-06
-1.60164e-05
-2.12587e-05
4.62287e-06
5.08977e-06
9.56954e-06
1.73615e-06
1.42647e-05
-4.98588e-07
1.8546e-05
-2.6337e-06
2.02727e-05
-4.8688e-06
1.83049e-05
-6.18995e-06
1.38886e-05
-6.29417e-06
8.99769e-06
-4.48417e-06
4.61094e-06
-6.59135e-07
1.38796e-06
2.78671e-06
-7.18896e-07
5.41846e-06
-2.12181e-06
7.25876e-06
-2.97115e-06
7.81842e-06
-3.20605e-06
7.03341e-06
-3.1564e-06
6.54218e-06
-2.87799e-06
6.19557e-06
-2.19131e-06
5.46143e-06
-8.02347e-07
4.42283e-06
1.2872e-06
2.70285e-06
4.14221e-06
-4.23519e-07
5.67259e-06
-4.81145e-06
4.35731e-06
-1.47011e-05
-1.69014e-05
8.32616e-06
-3.23639e-06
1.75139e-05
-7.45164e-06
2.39082e-05
-6.89281e-06
2.67032e-05
-5.42876e-06
2.50872e-05
-3.25278e-06
1.99596e-05
-1.06235e-06
1.39764e-05
-3.10904e-07
8.96192e-06
5.30266e-07
4.94389e-06
3.35889e-06
1.86232e-06
5.86828e-06
-6.8102e-07
7.9618e-06
-2.67197e-06
9.24972e-06
-3.8967e-06
9.04314e-06
-4.0316e-06
7.1683e-06
-3.78556e-06
6.29613e-06
-3.32168e-06
5.7317e-06
-2.49905e-06
4.6388e-06
-1.15473e-06
3.07851e-06
3.45845e-07
1.20229e-06
1.94581e-06
-2.02348e-06
2.88764e-06
-5.75326e-06
2.49933e-06
-1.43128e-05
-1.44021e-05
2.51851e-05
-2.51851e-05
1.53542e-05
9.83085e-06
-1.61773e-05
3.15315e-05
-6.89352e-05
5.27579e-05
-0.000119651
5.07154e-05
-0.000151289
3.16381e-05
-0.000167818
1.65295e-05
-0.000176459
8.64039e-06
-0.000180096
3.63703e-06
-0.000178507
-1.58839e-06
-0.000171957
-6.55052e-06
-0.000161813
-1.01439e-05
-0.000150753
-1.10598e-05
-0.000137697
-1.30556e-05
-0.000120844
-1.68529e-05
-9.39512e-05
-2.68932e-05
-4.88159e-05
-4.51354e-05
-1.55845e-06
-4.72574e-05
-1.55847e-06
-9.20914e-06
-1.59761e-05
-4.84969e-05
4.91186e-05
-0.00011046
9.34951e-05
-0.000166015
0.000108312
-0.000195886
8.05865e-05
-0.000202592
3.83446e-05
-0.00019891
1.28475e-05
-0.000192715
2.4456e-06
-0.000186282
-2.79671e-06
-0.000180826
-7.04372e-06
-0.000173847
-1.35296e-05
-0.000165103
-1.88879e-05
-0.000158388
-1.77754e-05
-0.000149259
-2.21845e-05
-0.000135205
-3.09071e-05
-0.00011324
-4.88573e-05
-7.49691e-05
-8.34068e-05
-2.81448e-05
-9.40817e-05
-2.97033e-05
-3.59306e-05
1.99546e-05
-9.01961e-05
0.000103384
-0.000149964
0.000153263
-0.000190967
0.000149315
-0.000206852
9.64719e-05
-0.00021265
4.41422e-05
-0.000224786
2.49833e-05
-0.000238863
1.65231e-05
-0.000245506
3.84571e-06
-0.000235074
-1.74751e-05
-0.00019284
-5.57636e-05
-0.000147494
-6.42345e-05
-0.000139091
-2.61777e-05
-0.000137798
-2.34776e-05
-0.000130194
-3.85116e-05
-0.000116517
-6.25343e-05
-8.64207e-05
-0.000113503
-4.31895e-05
-0.000137313
-7.28928e-05
-5.19903e-05
7.1945e-05
-9.84975e-05
0.000149891
-0.000150622
0.000205387
-0.000199577
0.000198271
-0.000280452
0.000177347
-0.000370607
0.000134297
-0.000403188
5.75645e-05
-0.000382019
-4.64628e-06
-0.000344144
-3.40292e-05
-0.000306253
-5.5366e-05
-0.000268168
-9.38488e-05
-0.000200248
-0.000132155
-0.000131641
-9.47848e-05
-0.000106487
-4.86312e-05
-0.000108443
-3.65553e-05
-0.000105635
-6.53423e-05
-8.27072e-05
-0.000136431
-4.65284e-05
-0.000173492
-0.000119421
-4.34425e-05
0.000115387
-7.78165e-05
0.000184265
-0.000123485
0.000251056
-0.000185223
0.000260008
-0.000238558
0.000230682
-0.000244887
0.000140626
-0.000199598
1.22763e-05
-0.000150141
-5.41043e-05
-0.000101187
-8.29831e-05
-6.03654e-05
-9.61877e-05
-4.9003e-05
-0.000105211
-7.18461e-05
-0.000109311
-7.88603e-05
-8.77707e-05
-6.66284e-05
-6.08628e-05
-6.51309e-05
-3.80527e-05
-7.08624e-05
-5.96107e-05
-6.93011e-05
-0.000137992
-4.22309e-05
-0.000200562
-0.000161652
-2.06765e-05
0.000136064
-3.95162e-05
0.000203105
-5.68335e-05
0.000268373
-0.000100827
0.000304002
-0.000116737
0.000246592
-5.84628e-05
8.23509e-05
3.84958e-05
-8.46824e-05
9.19553e-05
-0.000107564
0.000104109
-9.51366e-05
0.000100878
-9.29567e-05
8.33519e-05
-8.76853e-05
4.50786e-05
-7.10381e-05
1.84783e-05
-6.11703e-05
6.69001e-06
-4.90742e-05
5.29733e-06
-3.66601e-05
-9.698e-06
-4.46154e-05
-4.70443e-05
-0.000100646
-3.28193e-05
-0.000214787
-0.000194471
3.31389e-06
0.00013275
-9.75287e-06
0.000216172
1.00026e-05
0.000248618
2.76928e-05
0.000286312
4.5422e-05
0.000228863
0.000105821
2.19515e-05
0.000148356
-0.000127217
0.000144673
-0.00010388
0.000130952
-8.14154e-05
0.000120637
-8.26419e-05
0.000110703
-7.77517e-05
9.95402e-05
-5.98748e-05
8.79036e-05
-4.95338e-05
8.11434e-05
-4.23138e-05
6.49568e-05
-2.04739e-05
4.52453e-05
-2.4904e-05
-2.48908e-06
-5.29118e-05
-2.0397e-05
-0.000196879
-0.000214868
2.08501e-05
0.0001119
2.13022e-05
0.00021572
3.76481e-05
0.000232272
8.41222e-05
0.000239838
0.000131062
0.000181923
0.000170305
-1.72919e-05
0.000161356
-0.000118268
0.000135244
-7.7769e-05
0.000119467
-6.5638e-05
0.000112094
-7.52688e-05
0.000105952
-7.16097e-05
0.000100049
-5.39723e-05
9.44034e-05
-4.38877e-05
9.24083e-05
-4.03186e-05
8.73457e-05
-1.54114e-05
7.41345e-05
-1.16928e-05
2.25013e-05
-1.27863e-06
-8.38788e-06
-0.00016599
-0.000223256
1.81461e-05
-2.13825e-05
2.44136e-05
-1.37191e-05
1.9203e-05
-1.68223e-06
1.45544e-05
-7.80134e-07
1.06149e-05
6.86647e-07
7.51196e-06
2.04062e-06
5.51708e-06
1.68397e-06
3.55779e-06
2.48956e-06
1.87328e-06
5.04339e-06
3.89486e-07
7.35208e-06
-1.94977e-06
1.0301e-05
-5.61068e-06
1.29106e-05
-8.47506e-06
1.19075e-05
-8.37464e-06
7.06788e-06
-7.938e-06
5.85948e-06
-7.54923e-06
5.34293e-06
-6.48678e-06
3.57634e-06
-4.09065e-06
6.82387e-07
-1.48794e-06
-1.40042e-06
4.83694e-07
-3.99512e-06
1.61856e-06
-6.88812e-06
-9.63413e-07
-1.17308e-05
-8.49666e-06
-6.86881e-06
-6.76543e-05
4.62718e-05
-0.000126013
4.46399e-05
-0.000124709
-2.98593e-06
-8.50001e-05
-4.04893e-05
-5.82314e-05
-2.60821e-05
-4.77328e-05
-8.45798e-06
-4.55005e-05
-5.48391e-07
-4.21153e-05
-8.95577e-07
-3.46185e-05
-2.45346e-06
-2.50767e-05
-2.1897e-06
-1.69987e-05
2.22301e-06
-1.13581e-05
7.27003e-06
-6.90982e-06
7.45928e-06
-3.96961e-06
4.12766e-06
-4.31104e-06
6.20091e-06
-6.37076e-06
7.40266e-06
-7.24035e-06
4.44593e-06
-5.40582e-06
-1.15214e-06
-3.16882e-06
-3.63741e-06
-1.91144e-06
-5.25249e-06
-1.29856e-06
-7.50101e-06
-2.09027e-06
-1.09391e-05
-9.22796e-06
-1.35897e-06
-2.1689e-05
6.7961e-05
-5.67143e-05
7.96653e-05
-7.925e-05
1.95498e-05
-0.00010866
-1.10789e-05
-0.000136756
2.01308e-06
-0.000162336
1.71225e-05
-0.000178222
1.53371e-05
-0.000175407
-3.71052e-06
-0.000157755
-2.01049e-05
-0.000135721
-2.42241e-05
-9.65725e-05
-3.69257e-05
-7.01212e-05
-1.91813e-05
-5.27832e-05
-9.87874e-06
-3.56953e-05
-1.29602e-05
-1.93126e-05
-1.01819e-05
-9.5659e-06
-2.344e-06
-2.94867e-06
-2.1713e-06
1.25258e-06
-5.3534e-06
1.77933e-06
-4.16416e-06
6.38163e-07
-4.11132e-06
1.30211e-06
-8.16495e-06
1.23467e-06
-1.08716e-05
-1.02025e-05
2.20926e-06
7.62486e-06
6.03363e-05
2.79224e-06
8.4498e-05
-1.82955e-05
4.06375e-05
-4.32627e-05
1.38884e-05
-6.15887e-05
2.0339e-05
-7.50241e-05
3.05578e-05
-8.09536e-05
2.12665e-05
-9.08255e-05
6.16115e-06
-0.000107531
-3.39997e-06
-0.000126504
-5.25063e-06
-0.000151527
-1.19026e-05
-0.000155896
-1.48127e-05
-0.000144301
-2.14735e-05
-0.000133191
-2.40703e-05
-9.82388e-05
-4.51336e-05
-6.99188e-05
-3.0664e-05
-5.66131e-05
-1.5477e-05
-4.13605e-05
-2.0606e-05
-2.73997e-05
-1.8125e-05
-1.99128e-05
-1.15982e-05
-8.83883e-06
-1.92389e-05
-1.42145e-06
-1.8289e-05
-1.05852e-05
-1.03876e-06
6.37884e-06
5.39575e-05
2.18579e-05
6.9019e-05
1.12881e-05
5.12072e-05
4.77471e-06
2.04019e-05
1.61871e-06
2.34951e-05
-9.40493e-07
3.3117e-05
1.14105e-06
1.91849e-05
2.10229e-06
5.19979e-06
-3.34624e-06
2.04848e-06
-1.95848e-05
1.0988e-05
-5.05406e-05
1.90534e-05
-6.78312e-05
2.47797e-06
-8.74025e-05
-1.90226e-06
-0.000101378
-1.00949e-05
-0.000131511
-1.50006e-05
-0.000160933
-1.24238e-06
-0.000179187
2.77784e-06
-0.000184358
-1.54357e-05
-0.000170819
-3.16641e-05
-0.000143633
-3.87838e-05
-0.000100413
-6.24588e-05
-7.69371e-05
-4.17652e-05
-1.84368e-05
-6.90856e-05
1.32389e-07
5.38251e-05
1.86182e-05
5.05332e-05
2.34383e-05
4.63873e-05
1.49698e-05
2.88705e-05
1.00521e-05
2.84131e-05
1.20411e-05
3.11282e-05
6.90223e-06
2.43237e-05
-3.33388e-06
1.54359e-05
-8.65496e-06
7.36957e-06
-5.60559e-06
7.93872e-06
-4.92363e-06
1.83715e-05
-1.53313e-05
1.28856e-05
-2.70158e-05
9.78213e-06
-3.26131e-05
-4.49767e-06
-4.30989e-05
-4.5147e-06
-5.47058e-05
1.03645e-05
-6.89434e-05
1.70153e-05
-9.73031e-05
1.29239e-05
-0.000138242
9.27504e-06
-0.000181686
4.65973e-06
-0.000231443
-1.2702e-05
-0.000255591
-1.76168e-05
-2.3856e-05
-0.000250172
6.7503e-08
5.37576e-05
1.13838e-05
3.92171e-05
1.65039e-05
4.12675e-05
1.15235e-05
3.38512e-05
7.48173e-06
3.24551e-05
7.05524e-06
3.15547e-05
3.63167e-06
2.77472e-05
-3.18175e-06
2.22492e-05
-1.20462e-05
1.6234e-05
-1.80339e-05
1.39265e-05
-1.66112e-05
1.69487e-05
-2.19247e-05
1.8199e-05
-2.78286e-05
1.56859e-05
-3.47592e-05
2.43284e-06
-4.027e-05
9.96179e-07
-3.89897e-05
9.08414e-06
-3.77254e-05
1.57509e-05
-4.13767e-05
1.65751e-05
-4.93627e-05
1.7261e-05
-6.36711e-05
1.89681e-05
-9.02453e-05
1.38723e-05
-0.000140723
3.28607e-05
4.1286e-05
-0.000205865
6.66235e-07
5.30915e-05
5.72578e-06
3.41579e-05
8.33727e-06
3.86563e-05
6.81261e-06
3.53762e-05
5.30978e-06
3.39581e-05
3.98751e-06
3.2877e-05
7.35686e-07
3.0999e-05
-4.8151e-06
2.78e-05
-1.16682e-05
2.30871e-05
-1.67855e-05
1.90436e-05
-1.76391e-05
1.78021e-05
-1.68147e-05
1.73744e-05
-1.61666e-05
1.50377e-05
-2.25252e-05
8.79149e-06
-3.04275e-05
8.89847e-06
-3.50274e-05
1.3684e-05
-3.70681e-05
1.77916e-05
-3.95126e-05
1.90195e-05
-3.83578e-05
1.61062e-05
-3.25595e-05
1.31701e-05
-2.36043e-05
4.91696e-06
-2.84587e-05
3.77149e-05
8.53976e-05
-7.25703e-05
1.78487e-07
5.29131e-05
2.47465e-06
3.1862e-05
4.33429e-06
3.67969e-05
4.04031e-06
3.56703e-05
3.37871e-06
3.46197e-05
2.55634e-06
3.36993e-05
7.41211e-07
3.28141e-05
-2.37627e-06
3.09175e-05
-6.81639e-06
2.75272e-05
-1.15464e-05
2.37735e-05
-1.44942e-05
2.07497e-05
-1.52087e-05
1.80888e-05
-1.57501e-05
1.55791e-05
-1.89722e-05
1.20136e-05
-2.25058e-05
1.2432e-05
-2.40325e-05
1.52106e-05
-2.32326e-05
1.69916e-05
-1.97292e-05
1.55159e-05
-1.52816e-05
1.16585e-05
-1.02542e-05
8.14284e-06
-4.65454e-06
-6.82664e-07
8.28882e-06
2.47714e-05
9.45213e-05
-8.35052e-07
-1.21817e-07
5.30351e-05
1.03993e-06
3.07005e-05
2.41838e-06
3.54187e-05
2.45107e-06
3.56376e-05
2.17425e-06
3.48964e-05
1.8507e-06
3.40227e-05
1.25622e-06
3.34084e-05
-1.15097e-07
3.22888e-05
-2.5799e-06
2.99919e-05
-5.59059e-06
2.6784e-05
-8.11762e-06
2.32765e-05
-1.00836e-05
2.00546e-05
-1.21812e-05
1.76767e-05
-1.5967e-05
1.57994e-05
-1.94991e-05
1.59641e-05
-2.14077e-05
1.71191e-05
-2.07443e-05
1.63281e-05
-1.77475e-05
1.25189e-05
-1.31603e-05
7.07119e-06
-6.66807e-06
1.65053e-06
-1.36378e-06
-5.98691e-06
2.6071e-06
2.08004e-05
8.83952e-05
8.7328e-06
7.15933e-09
5.30281e-05
4.54514e-07
3.02533e-05
1.25813e-06
3.46151e-05
1.34349e-06
3.55521e-05
1.24727e-06
3.49924e-05
1.07379e-06
3.4196e-05
8.93973e-07
3.35882e-05
4.22165e-07
3.27605e-05
-7.18678e-07
3.11326e-05
-2.50019e-06
2.85653e-05
-4.85132e-06
2.56274e-05
-7.67405e-06
2.28772e-05
-1.08739e-05
2.08765e-05
-1.45614e-05
1.94867e-05
-1.77794e-05
1.9182e-05
-1.96228e-05
1.89624e-05
-2.00807e-05
1.6786e-05
-1.96809e-05
1.21191e-05
-1.89065e-05
6.29682e-06
-1.73489e-05
9.26781e-08
-1.62261e-05
-7.10948e-06
-1.46282e-05
1.92028e-05
7.81478e-05
-4.381e-06
3.34285e-07
5.26939e-05
2.15639e-07
3.0372e-05
5.32269e-07
3.42983e-05
5.19525e-07
3.55646e-05
3.58891e-07
3.51528e-05
1.16973e-07
3.44377e-05
-1.01733e-07
3.38069e-05
-3.8172e-07
3.30405e-05
-1.07407e-06
3.18249e-05
-2.50273e-06
2.99939e-05
-4.73644e-06
2.7861e-05
-7.68466e-06
2.58253e-05
-1.10774e-05
2.4269e-05
-1.46885e-05
2.30976e-05
-1.78205e-05
2.23138e-05
-2.01611e-05
2.13027e-05
-2.21799e-05
1.88046e-05
-2.4318e-05
1.42572e-05
-2.68777e-05
8.85658e-06
-3.01935e-05
3.40833e-06
-3.68718e-05
-4.31196e-07
-3.79893e-05
2.03205e-05
6.94783e-05
-2.932e-05
4.98208e-07
5.21958e-05
1.0573e-07
3.07645e-05
4.90018e-08
3.43549e-05
-9.03326e-08
3.57037e-05
-3.67923e-07
3.54301e-05
-7.53892e-07
3.48236e-05
-1.18513e-06
3.42381e-05
-1.69653e-06
3.35518e-05
-2.50761e-06
3.26359e-05
-3.9205e-06
3.14066e-05
-6.04811e-06
2.99884e-05
-8.83827e-06
2.86153e-05
-1.20561e-05
2.74867e-05
-1.54358e-05
2.64772e-05
-1.86671e-05
2.55449e-05
-2.1725e-05
2.43605e-05
-2.50513e-05
2.21306e-05
-2.88476e-05
1.80535e-05
-3.29659e-05
1.29751e-05
-3.86625e-05
9.10478e-06
-4.89969e-05
9.90312e-06
-5.52041e-05
2.6528e-05
6.20606e-05
-4.77867e-05
4.79844e-07
5.17159e-05
2.55497e-08
3.12189e-05
-2.33122e-07
3.46135e-05
-5.45909e-07
3.60163e-05
-9.31628e-07
3.58157e-05
-1.4575e-06
3.53494e-05
-2.09704e-06
3.48777e-05
-2.87664e-06
3.43315e-05
-3.91695e-06
3.36762e-05
-5.39923e-06
3.28887e-05
-7.43813e-06
3.20271e-05
-1.00071e-05
3.1184e-05
-1.29643e-05
3.04436e-05
-1.623e-05
2.97427e-05
-1.97293e-05
2.90443e-05
-2.35848e-05
2.82162e-05
-2.82276e-05
2.67732e-05
-3.41006e-05
2.39264e-05
-4.11704e-05
2.00453e-05
-4.97784e-05
1.77131e-05
-6.11207e-05
2.12455e-05
-6.94269e-05
3.48339e-05
5.71569e-05
-6.45228e-05
3.60445e-07
5.13555e-05
-6.52055e-08
3.16446e-05
-4.7857e-07
3.50268e-05
-8.85433e-07
3.64231e-05
-1.35657e-06
3.62868e-05
-1.9632e-06
3.59561e-05
-2.72148e-06
3.5636e-05
-3.65973e-06
3.52698e-05
-4.83995e-06
3.48563e-05
-6.36025e-06
3.44089e-05
-8.28935e-06
3.3956e-05
-1.06408e-05
3.35351e-05
-1.33885e-05
3.31909e-05
-1.65721e-05
3.2926e-05
-2.0261e-05
3.27329e-05
-2.46048e-05
3.256e-05
-3.00787e-05
3.22472e-05
-3.76056e-05
3.14533e-05
-4.76546e-05
3.0094e-05
-5.9627e-05
2.96856e-05
-7.22636e-05
3.38826e-05
-8.21815e-05
4.4752e-05
5.96969e-05
-8.47217e-05
2.39524e-07
5.11161e-05
-1.76879e-07
3.20611e-05
-6.68107e-07
3.55181e-05
-1.1325e-06
3.68875e-05
-1.65298e-06
3.68073e-05
-2.29832e-06
3.66015e-05
-3.09198e-06
3.64297e-05
-4.06999e-06
3.62479e-05
-5.27419e-06
3.60603e-05
-6.7535e-06
3.58879e-05
-8.55428e-06
3.57565e-05
-1.07165e-05
3.56971e-05
-1.3272e-05
3.57463e-05
-1.62886e-05
3.59426e-05
-1.9874e-05
3.63183e-05
-2.42062e-05
3.68918e-05
-2.96653e-05
3.77065e-05
-3.69963e-05
3.87846e-05
-4.69796e-05
4.00773e-05
-5.95792e-05
4.22854e-05
-7.32769e-05
4.75801e-05
-8.56658e-05
5.71407e-05
6.91562e-05
-9.51252e-05
1.40483e-07
5.09757e-05
-2.83743e-07
3.24856e-05
-8.06069e-07
3.60405e-05
-1.29342e-06
3.73749e-05
-1.8352e-06
3.73491e-05
-2.48618e-06
3.72526e-05
-3.26816e-06
3.72118e-05
-4.21514e-06
3.71948e-05
-5.36232e-06
3.72074e-05
-6.74525e-06
3.72706e-05
-8.40301e-06
3.74141e-05
-1.03794e-05
3.76733e-05
-1.27219e-05
3.80887e-05
-1.54949e-05
3.87158e-05
-1.87948e-05
3.96183e-05
-2.27835e-05
4.08804e-05
-2.7713e-05
4.26361e-05
-3.39825e-05
4.50544e-05
-4.22143e-05
4.83088e-05
-5.27695e-05
5.28408e-05
-6.48145e-05
5.96253e-05
-7.68012e-05
6.91274e-05
8.04292e-05
-8.80743e-05
7.45063e-08
5.09014e-05
-3.67296e-07
3.29276e-05
-8.89323e-07
3.65626e-05
-1.37447e-06
3.786e-05
-1.91194e-06
3.78865e-05
-2.54442e-06
3.78852e-05
-3.28873e-06
3.79562e-05
-4.17178e-06
3.80778e-05
-5.22355e-06
3.82588e-05
-6.47646e-06
3.85232e-05
-7.96464e-06
3.89019e-05
-9.72595e-06
3.94344e-05
-1.18057e-05
4.01684e-05
-1.42569e-05
4.11671e-05
-1.71524e-05
4.25138e-05
-2.05976e-05
4.43257e-05
-2.4731e-05
4.67696e-05
-2.97302e-05
5.0054e-05
-3.58611e-05
5.444e-05
-4.33663e-05
6.03461e-05
-5.1986e-05
6.82452e-05
-6.11321e-05
7.82736e-05
9.00326e-05
-7.07357e-05
3.85059e-08
5.0863e-05
-4.17384e-07
3.33836e-05
-9.19783e-07
3.7065e-05
-1.38271e-06
3.83229e-05
-1.89447e-06
3.83983e-05
-2.48719e-06
3.84779e-05
-3.17368e-06
3.86428e-05
-3.97333e-06
3.88773e-05
-4.90986e-06
3.91952e-05
-6.00838e-06
3.96215e-05
-7.29736e-06
4.01908e-05
-8.80462e-06
4.09417e-05
-1.05639e-05
4.19278e-05
-1.26112e-05
4.32145e-05
-1.49896e-05
4.48922e-05
-1.77506e-05
4.7087e-05
-2.09534e-05
4.99724e-05
-2.4654e-05
5.37548e-05
-2.88892e-05
5.86755e-05
-3.36119e-05
6.5069e-05
-3.8665e-05
7.32985e-05
-4.39402e-05
8.35488e-05
9.58072e-05
-4.97148e-05
2.50127e-08
5.08381e-05
-4.33071e-07
3.38418e-05
-9.01759e-07
3.75336e-05
-1.32749e-06
3.87485e-05
-1.79539e-06
3.88662e-05
-2.33016e-06
3.90126e-05
-2.94041e-06
3.92531e-05
-3.63956e-06
3.95763e-05
-4.44325e-06
3.99986e-05
-5.36928e-06
4.05474e-05
-6.43516e-06
4.12566e-05
-7.66046e-06
4.21671e-05
-9.06295e-06
4.33305e-05
-1.06595e-05
4.4811e-05
-1.24647e-05
4.66973e-05
-1.44882e-05
4.91106e-05
-1.67273e-05
5.22116e-05
-1.91601e-05
5.61876e-05
-2.17151e-05
6.12308e-05
-2.42085e-05
6.75627e-05
-2.63568e-05
7.5447e-05
-2.79499e-05
8.51419e-05
9.69066e-05
-2.90496e-05
3.06572e-08
5.08075e-05
-4.1786e-07
3.42903e-05
-8.41497e-07
3.79571e-05
-1.21828e-06
3.9125e-05
-1.62887e-06
3.92767e-05
-2.09126e-06
3.94749e-05
-2.61079e-06
3.97725e-05
-3.19502e-06
4.01602e-05
-3.85268e-06
4.0656e-05
-4.59301e-06
4.12876e-05
-5.4247e-06
4.20884e-05
-6.35589e-06
4.30986e-05
-7.39103e-06
4.43659e-05
-8.52939e-06
4.59493e-05
-9.7612e-06
4.79291e-05
-1.10631e-05
5.04123e-05
-1.2387e-05
5.35355e-05
-1.36558e-05
5.74564e-05
-1.47436e-05
6.23186e-05
-1.54307e-05
6.82501e-05
-1.53667e-05
7.53831e-05
-1.41115e-05
8.38865e-05
9.40387e-05
-1.1244e-05
5.22103e-08
5.07553e-05
-3.76008e-07
3.47183e-05
-7.46738e-07
3.83277e-05
-1.06565e-06
3.94437e-05
-1.40932e-06
3.96202e-05
-1.78987e-06
3.98555e-05
-2.2086e-06
4.01911e-05
-2.66847e-06
4.06199e-05
-3.17252e-06
4.11598e-05
-3.72284e-06
4.18377e-05
-4.31932e-06
4.2685e-05
-4.9596e-06
4.37392e-05
-5.6365e-06
4.50429e-05
-6.33497e-06
4.66476e-05
-7.02503e-06
4.86193e-05
-7.66269e-06
5.10498e-05
-8.16951e-06
5.40423e-05
-8.43826e-06
5.77251e-05
-8.31161e-06
6.21921e-05
-7.56057e-06
6.74991e-05
-5.85304e-06
7.36755e-05
-2.66272e-06
8.06961e-05
8.86867e-05
2.68916e-06
8.85484e-08
5.06667e-05
-3.12282e-07
3.5119e-05
-6.24561e-07
3.86397e-05
-8.79915e-07
3.9699e-05
-1.15088e-06
3.9891e-05
-1.44428e-06
4.01489e-05
-1.75785e-06
4.05044e-05
-2.09032e-06
4.09522e-05
-2.43994e-06
4.15091e-05
-2.80251e-06
4.22001e-05
-3.17114e-06
4.30538e-05
-3.53473e-06
4.4103e-05
-3.8768e-06
4.53849e-05
-4.17006e-06
4.69408e-05
-4.37587e-06
4.88251e-05
-4.43036e-06
5.1104e-05
-4.24613e-06
5.38581e-05
-3.69711e-06
5.7176e-05
-2.62599e-06
6.1121e-05
-7.9203e-07
6.56652e-05
2.08994e-06
7.07935e-05
6.37602e-06
7.641e-05
8.24091e-05
1.26536e-05
1.33078e-07
5.05336e-05
-2.31e-07
3.5483e-05
-4.80707e-07
3.88891e-05
-6.69981e-07
3.98883e-05
-8.65389e-07
4.00864e-05
-1.07016e-06
4.03536e-05
-1.2785e-06
4.07126e-05
-1.4857e-06
4.11592e-05
-1.68599e-06
4.17091e-05
-1.87032e-06
4.23844e-05
-2.02612e-06
4.32098e-05
-2.13708e-06
4.42142e-05
-2.17724e-06
4.5425e-05
-2.11413e-06
4.68776e-05
-1.90135e-06
4.86121e-05
-1.47026e-06
5.06726e-05
-7.21091e-07
5.31087e-05
4.71769e-07
5.59831e-05
2.26507e-06
5.93278e-05
4.80178e-06
6.31285e-05
8.34887e-06
6.72463e-05
1.32411e-05
7.15177e-05
7.5776e-05
1.98743e-05
1.79955e-07
5.03535e-05
-1.3558e-07
3.57983e-05
-3.18376e-07
3.90716e-05
-4.41955e-07
4.00118e-05
-5.62328e-07
4.02068e-05
-6.80143e-07
4.04713e-05
-7.87163e-07
4.08194e-05
-8.75588e-07
4.12474e-05
-9.36723e-07
4.17699e-05
-9.57263e-07
4.24049e-05
-9.21872e-07
4.31747e-05
-8.10146e-07
4.41026e-05
-5.89376e-07
4.52042e-05
-2.2052e-07
4.65088e-05
3.45195e-07
4.80462e-05
1.18403e-06
4.98337e-05
2.36631e-06
5.19263e-05
3.99721e-06
5.43521e-05
6.238e-06
5.70872e-05
9.24934e-06
6.01174e-05
1.3212e-05
6.32837e-05
1.83291e-05
6.64007e-05
6.92523e-05
2.4853e-05
2.28747e-07
5.01247e-05
-2.84569e-08
3.60551e-05
-1.39226e-07
3.91823e-05
-2.00801e-07
4.00732e-05
-2.47874e-07
4.0254e-05
-2.8329e-07
4.05064e-05
-2.96447e-07
4.08324e-05
-2.76245e-07
4.12269e-05
-2.12433e-07
4.17058e-05
-8.84201e-08
4.2281e-05
1.15749e-07
4.29708e-05
4.27973e-07
4.37905e-05
8.69883e-07
4.47623e-05
1.47468e-06
4.59042e-05
2.31237e-06
4.72084e-05
3.42383e-06
4.87222e-05
4.91631e-06
5.04337e-05
6.8873e-06
5.23811e-05
9.4331e-06
5.45414e-05
1.26998e-05
5.68506e-05
1.68105e-05
5.9173e-05
2.19033e-05
6.13077e-05
6.30434e-05
2.81122e-05
2.82461e-07
4.98421e-05
9.45711e-08
3.62425e-05
4.85022e-08
3.92283e-05
5.02397e-08
4.00713e-05
7.32934e-08
4.02309e-05
1.15095e-07
4.04643e-05
1.89185e-07
4.07583e-05
3.03559e-07
4.11122e-05
4.75877e-07
4.15334e-05
7.20068e-07
4.20371e-05
1.05914e-06
4.2632e-05
1.51575e-06
4.33339e-05
2.1258e-06
4.41523e-05
2.93346e-06
4.50966e-05
3.96596e-06
4.61757e-05
5.3061e-06
4.73821e-05
7.00823e-06
4.87315e-05
9.17486e-06
5.02145e-05
1.18912e-05
5.18251e-05
1.52574e-05
5.34843e-05
1.9361e-05
5.50691e-05
2.42845e-05
5.63841e-05
5.72436e-05
3.00842e-05
3.41124e-07
4.95008e-05
2.16315e-07
3.63668e-05
2.41037e-07
3.92035e-05
3.07936e-07
4.00045e-05
3.94192e-07
4.01446e-05
5.04705e-07
4.03537e-05
6.55006e-07
4.06079e-05
8.52089e-07
4.09148e-05
1.11294e-06
4.12726e-05
1.45697e-06
4.16933e-05
1.9039e-06
4.21852e-05
2.48166e-06
4.27562e-05
3.21691e-06
4.34172e-05
4.15254e-06
4.4161e-05
5.3329e-06
4.49953e-05
6.80767e-06
4.59075e-05
8.64255e-06
4.68968e-05
1.09092e-05
4.79478e-05
1.36844e-05
4.905e-05
1.70348e-05
5.01338e-05
2.10257e-05
5.1078e-05
2.57077e-05
5.17018e-05
5.18571e-05
3.10943e-05
4.107e-07
4.90897e-05
3.42498e-07
3.64346e-05
4.34483e-07
3.91114e-05
5.54345e-07
3.9885e-05
7.01707e-07
3.99971e-05
8.7572e-07
4.01797e-05
1.09196e-06
4.03914e-05
1.36189e-06
4.06446e-05
1.69916e-06
4.09353e-05
2.12165e-06
4.12709e-05
2.65185e-06
4.1655e-05
3.31388e-06
4.20942e-05
4.14252e-06
4.25887e-05
5.16774e-06
4.31358e-05
6.43075e-06
4.37323e-05
7.9783e-06
4.43599e-05
9.86321e-06
4.5012e-05
1.21455e-05
4.56658e-05
1.48881e-05
4.63074e-05
1.81449e-05
4.68767e-05
2.19615e-05
4.72614e-05
2.63646e-05
4.72985e-05
4.68662e-05
3.13555e-05
4.95699e-07
4.85936e-05
4.67927e-07
3.64621e-05
6.15299e-07
3.89639e-05
7.85732e-07
3.97148e-05
9.87572e-07
3.97951e-05
1.21854e-06
3.99488e-05
1.49625e-06
4.01132e-05
1.82933e-06
4.03112e-05
2.23079e-06
4.05338e-05
2.71862e-06
4.0783e-05
3.31186e-06
4.10618e-05
4.03665e-06
4.13695e-05
4.92165e-06
4.17039e-05
5.99563e-06
4.20619e-05
7.30025e-06
4.24279e-05
8.86658e-06
4.27937e-05
1.07444e-05
4.31343e-05
1.29776e-05
4.34328e-05
1.56249e-05
4.36602e-05
1.87258e-05
4.37758e-05
2.23192e-05
4.3668e-05
2.64227e-05
4.3195e-05
4.22402e-05
3.10487e-05
5.92992e-07
4.80003e-05
5.86506e-07
3.64684e-05
7.74958e-07
3.87755e-05
9.89507e-07
3.95002e-05
1.23847e-06
3.95462e-05
1.52124e-06
3.9666e-05
1.85107e-06
3.9783e-05
2.23789e-06
3.99243e-05
2.69505e-06
4.00768e-05
3.23758e-06
4.02407e-05
3.88412e-06
4.04155e-05
4.65604e-06
4.05978e-05
5.57664e-06
4.07836e-05
6.67625e-06
4.09625e-05
7.98385e-06
4.11205e-05
9.53495e-06
4.12428e-05
1.13673e-05
4.13022e-05
1.35181e-05
4.12822e-05
1.60281e-05
4.11505e-05
1.89394e-05
4.08644e-05
2.22814e-05
4.0326e-05
2.6077e-05
3.93994e-05
3.79724e-05
3.03448e-05
6.95456e-07
4.73047e-05
6.91206e-07
3.64725e-05
9.02979e-07
3.85638e-05
1.15197e-06
3.9251e-05
1.43829e-06
3.92598e-05
1.75986e-06
3.93443e-05
2.13183e-06
3.94109e-05
2.56307e-06
3.94932e-05
3.06513e-06
3.9575e-05
3.65216e-06
3.9654e-05
4.33956e-06
3.97283e-05
5.14711e-06
3.97904e-05
6.09524e-06
3.98355e-05
7.20783e-06
3.98498e-05
8.51062e-06
3.98176e-05
1.0031e-05
3.97225e-05
1.18002e-05
3.95332e-05
1.38512e-05
3.92314e-05
1.62155e-05
3.87862e-05
1.8932e-05
3.8148e-05
2.20244e-05
3.72334e-05
2.55119e-05
3.5912e-05
3.40614e-05
2.94227e-05
7.98127e-07
4.65065e-05
7.75406e-07
3.64953e-05
9.88318e-07
3.8351e-05
1.25867e-06
3.89804e-05
1.56708e-06
3.89513e-05
1.91186e-06
3.89993e-05
2.31044e-06
3.90122e-05
2.76916e-06
3.90346e-05
3.30071e-06
3.90435e-05
3.91867e-06
3.90362e-05
4.63546e-06
3.90117e-05
5.46709e-06
3.89588e-05
6.4299e-06
3.88724e-05
7.54735e-06
3.87322e-05
8.83694e-06
3.8528e-05
1.03261e-05
3.82334e-05
1.20354e-05
3.78241e-05
1.39907e-05
3.72763e-05
1.6224e-05
3.65531e-05
1.8762e-05
3.561e-05
2.16268e-05
3.43683e-05
2.4834e-05
3.27047e-05
3.04975e-05
2.83979e-05
8.95025e-07
4.56116e-05
8.3262e-07
3.65579e-05
1.02408e-06
3.81595e-05
1.29785e-06
3.87064e-05
1.60659e-06
3.86425e-05
1.95465e-06
3.8651e-05
2.35749e-06
3.86095e-05
2.82172e-06
3.85705e-05
3.36088e-06
3.85045e-05
3.98504e-06
3.84123e-05
4.70746e-06
3.82895e-05
5.54152e-06
3.81249e-05
6.50241e-06
3.79115e-05
7.6053e-06
3.76293e-05
8.87147e-06
3.72621e-05
1.03174e-05
3.67877e-05
1.19641e-05
3.61776e-05
1.38326e-05
3.54079e-05
1.59447e-05
3.44411e-05
1.83269e-05
3.32278e-05
2.09951e-05
3.17e-05
2.39529e-05
2.97469e-05
2.72489e-05
2.72017e-05
9.78801e-07
4.46329e-05
8.58488e-07
3.66784e-05
1.0061e-06
3.80119e-05
1.26339e-06
3.84489e-05
1.55042e-06
3.83551e-05
1.87828e-06
3.83228e-05
2.26003e-06
3.82278e-05
2.70319e-06
3.81274e-05
3.22076e-06
3.7987e-05
3.82102e-06
3.78122e-05
4.51626e-06
3.75945e-05
5.31923e-06
3.73222e-05
6.24349e-06
3.69875e-05
7.3026e-06
3.65704e-05
8.51197e-06
3.60529e-05
9.88959e-06
3.54104e-05
1.14482e-05
3.46189e-05
1.32089e-05
3.36472e-05
1.51889e-05
3.2461e-05
1.74074e-05
3.10093e-05
1.98771e-05
2.92302e-05
2.25927e-05
2.70314e-05
2.43053e-05
2.55363e-05
1.03638e-06
4.35966e-05
8.53078e-07
3.68617e-05
9.41149e-07
3.79237e-05
1.16242e-06
3.82272e-05
1.40546e-06
3.81115e-05
1.69303e-06
3.8035e-05
2.03115e-06
3.78898e-05
2.42801e-06
3.77308e-05
2.8942e-06
3.75212e-05
3.43964e-06
3.72671e-05
4.07442e-06
3.69599e-05
4.80805e-06
3.65887e-05
5.65308e-06
3.61426e-05
6.62123e-06
3.56025e-05
7.72767e-06
3.49467e-05
8.98615e-06
3.41521e-05
1.04101e-05
3.31949e-05
1.20126e-05
3.20444e-05
1.38109e-05
3.06627e-05
1.5815e-05
2.90051e-05
1.80327e-05
2.70125e-05
2.04501e-05
2.4614e-05
2.17128e-05
2.30426e-05
1.06213e-06
4.25346e-05
8.16469e-07
3.71072e-05
8.38898e-07
3.79009e-05
1.01326e-06
3.80523e-05
1.19763e-06
3.79267e-05
1.43213e-06
3.78005e-05
1.70913e-06
3.7613e-05
2.04122e-06
3.73991e-05
2.43674e-06
3.71262e-05
2.90144e-06
3.68027e-05
3.4442e-06
3.64173e-05
4.07421e-06
3.59588e-05
4.80179e-06
3.54152e-05
5.63823e-06
3.47662e-05
6.59585e-06
3.39891e-05
7.68482e-06
3.30632e-05
8.91622e-06
3.19633e-05
1.03013e-05
3.0659e-05
1.18488e-05
2.9115e-05
1.35647e-05
2.72892e-05
1.5446e-05
2.51311e-05
1.74728e-05
2.25873e-05
1.95737e-05
1.9612e-05
1.0416e-06
4.14928e-05
7.53353e-07
3.73953e-05
7.1698e-07
3.79368e-05
8.40073e-07
3.79288e-05
9.626e-07
3.78039e-05
1.14123e-06
3.76218e-05