/*--------------------------------*- C++ -*----------------------------------*\
| =========                 |                                                 |
| \\      /  F ield         | OpenFOAM: The Open Source CFD Toolbox           |
|  \\    /   O peration     | Version:  2206                                  |
|   \\  /    A nd           | Website:  www.openfoam.com                      |
|    \\/     M anipulation  |                                                 |
\*---------------------------------------------------------------------------*/
FoamFile
{
    version     2.0;
    format      ascii;
    arch        "LSB;label=32;scalar=64";
    class       volVectorField;
    location    "0.65";
    object      U;
}
// * * * * * * * * * * * * * * * * * * * * * * * * * * * * * * * * * * * * * //

dimensions      [0 1 -1 0 0 0 0];

internalField   nonuniform List<vector> 
2268
(
(-0.0207185 0.00893212 0)
(-0.0610799 0.00953594 0)
(-0.0904358 0.00488882 0)
(-0.0989489 0.0013341 0)
(-0.09799 -0.00197929 0)
(-0.0815811 -0.00569766 0)
(-0.0500682 -0.0085546 0)
(-0.0121503 -0.00828097 0)
(0.0185906 -0.00536116 0)
(0.0351182 -0.00176109 0)
(0.037072 0.00175117 0)
(0.0254681 0.00457057 0)
(0.00556019 0.00642088 0)
(-0.0192979 0.00793861 0)
(-0.0488965 0.0101496 0)
(-0.0859201 0.0123192 0)
(-0.131099 0.00885038 0)
(-0.161602 0.00138071 0)
(-0.185835 0.00935067 0)
(-0.269084 0.0219068 0)
(-0.332057 0.00605004 0)
(-0.250249 -0.0349675 0)
(-0.0882097 -0.053351 0)
(-0.0324277 0.0290604 0)
(-0.0672214 0.0243573 0)
(-0.0853601 0.0112471 0)
(-0.0931313 0.00352547 0)
(-0.0963738 -0.00497346 0)
(-0.0838329 -0.0163652 0)
(-0.0531072 -0.0260628 0)
(-0.0133609 -0.0257985 0)
(0.0192135 -0.0169783 0)
(0.0366547 -0.00620319 0)
(0.0397401 0.00288496 0)
(0.0346881 0.00947158 0)
(0.0243005 0.0138114 0)
(0.0104859 0.017145 0)
(-0.00670061 0.0216201 0)
(-0.0293589 0.0279498 0)
(-0.0664935 0.03203 0)
(-0.119182 0.0290572 0)
(-0.187848 0.0353061 0)
(-0.270653 0.0397339 0)
(-0.2742 -0.00227172 0)
(-0.180008 -0.090791 0)
(-0.0597319 -0.134298 0)
(-0.0287816 0.0490448 0)
(-0.0493993 0.0360823 0)
(-0.0682043 0.0168083 0)
(-0.0817773 0.00801433 0)
(-0.0924145 -0.00471578 0)
(-0.0842535 -0.0256826 0)
(-0.0560665 -0.0441472 0)
(-0.0177511 -0.0443667 0)
(0.0150049 -0.0291159 0)
(0.0324536 -0.0105654 0)
(0.0344635 0.00383063 0)
(0.0267159 0.0131058 0)
(0.0151168 0.0187418 0)
(0.00355932 0.0223657 0)
(-0.00605044 0.0271901 0)
(-0.0119872 0.035382 0)
(-0.0176845 0.0459471 0)
(-0.0350418 0.054342 0)
(-0.0723799 0.0624185 0)
(-0.122002 0.0519698 0)
(-0.136153 -0.0161004 0)
(-0.0826924 -0.120612 0)
(-0.0136861 -0.178445 0)
(-0.0191242 0.0632042 0)
(-0.0252927 0.0456929 0)
(-0.041948 0.0239368 0)
(-0.057182 0.0151577 0)
(-0.0672534 -0.00238426 0)
(-0.0568998 -0.034611 0)
(-0.0346492 -0.0607591 0)
(-0.00940068 -0.0612038 0)
(0.0130733 -0.0403042 0)
(0.0260479 -0.0143417 0)
(0.0265109 0.0057681 0)
(0.017649 0.0180811 0)
(0.00492053 0.0245803 0)
(-0.00705489 0.0272852 0)
(-0.016025 0.0304674 0)
(-0.0196119 0.0360753 0)
(-0.0150613 0.0455765 0)
(0.000129428 0.0586534 0)
(0.00973381 0.0719007 0)
(0.0234613 0.063073 0)
(0.0179395 -0.00777268 0)
(0.0201376 -0.118119 0)
(0.0292615 -0.179603 0)
(-0.00609467 0.0696406 0)
(0.00678474 0.0484946 0)
(0.000327437 0.0303803 0)
(-0.00652994 0.0205279 0)
(-0.0025107 -0.00382107 0)
(0.0163602 -0.041731 0)
(0.0272885 -0.0689849 0)
(0.0260506 -0.0684795 0)
(0.0231006 -0.0447422 0)
(0.0211616 -0.0149796 0)
(0.0163387 0.00866404 0)
(0.00666993 0.0233455 0)
(-0.00566366 0.0304233 0)
(-0.0162732 0.0320924 0)
(-0.023416 0.0334696 0)
(-0.0265818 0.035757 0)
(-0.0233519 0.0396216 0)
(-0.00401791 0.0477795 0)
(0.0282021 0.0567771 0)
(0.0754916 0.0502216 0)
(0.0985076 -0.00686706 0)
(0.079036 -0.106861 0)
(0.0567525 -0.156128 0)
(0.00839281 0.0631515 0)
(0.0449476 0.0439953 0)
(0.0607138 0.0263633 0)
(0.0729948 0.0133231 0)
(0.101295 -0.0114863 0)
(0.12537 -0.0440013 0)
(0.116363 -0.0646569 0)
(0.0821998 -0.0608087 0)
(0.0474359 -0.0370694 0)
(0.0225556 -0.00905317 0)
(0.00659796 0.0138464 0)
(-0.0057779 0.0285207 0)
(-0.0175634 0.0349578 0)
(-0.0259645 0.0351104 0)
(-0.0300002 0.0350128 0)
(-0.0310572 0.0354338 0)
(-0.0277756 0.0351769 0)
(-0.0141182 0.0359087 0)
(0.0137618 0.0339339 0)
(0.0584916 0.023342 0)
(0.100769 -0.0131873 0)
(0.0801582 -0.0919973 0)
(0.0664977 -0.130006 0)
(0.020968 0.0455078 0)
(0.0790698 0.0359834 0)
(0.133281 0.024025 0)
(0.188187 0.00640848 0)
(0.23131 -0.0174362 0)
(0.235052 -0.0381857 0)
(0.191508 -0.046878 0)
(0.128209 -0.0385766 0)
(0.0726672 -0.0175624 0)
(0.0305459 0.00396967 0)
(0.00137701 0.0224096 0)
(-0.0173675 0.0356185 0)
(-0.0303543 0.0412004 0)
(-0.0364631 0.0388864 0)
(-0.0366881 0.0364712 0)
(-0.0350096 0.0344961 0)
(-0.0302543 0.0310411 0)
(-0.0188127 0.0268282 0)
(0.000869 0.0183125 0)
(0.026687 0.00251102 0)
(0.0662879 -0.0237135 0)
(0.0528786 -0.0832094 0)
(0.0634609 -0.10424 0)
(0.0343821 0.00412817 0)
(0.147311 -0.0198369 0)
(0.245315 -0.030983 0)
(0.29984 -0.0345316 0)
(0.307666 -0.0324629 0)
(0.268089 -0.0241102 0)
(0.195265 -0.0150591 0)
(0.1257 -0.0041368 0)
(0.0750039 0.0127069 0)
(0.0368937 0.0272954 0)
(0.00505109 0.0368125 0)
(-0.0207182 0.0424392 0)
(-0.039729 0.0418098 0)
(-0.0471911 0.0354071 0)
(-0.0450803 0.0332794 0)
(-0.041036 0.0325095 0)
(-0.0344315 0.0287809 0)
(-0.0221463 0.0218985 0)
(-0.00440857 0.011321 0)
(0.0102392 -0.00759 0)
(0.0327338 -0.0295451 0)
(0.026353 -0.0766403 0)
(0.0441031 -0.0779338 0)
(0.0805848 -0.12114 0)
(0.369108 -0.0706719 0)
(0.0708331 0.0592903 0)
(-0.474356 0.238568 0)
(-1.15356 0.269861 0)
(-1.6096 0.194528 0)
(-1.8452 0.13282 0)
(-1.97718 0.100829 0)
(-2.04982 0.0721952 0)
(-2.06361 0.0381394 0)
(-2.00522 0.00308864 0)
(-1.90628 -0.0170233 0)
(-1.79374 -0.0226596 0)
(-1.67249 -0.0278662 0)
(-1.50186 -0.0415282 0)
(-1.22231 -0.0843026 0)
(-0.816314 -0.157363 0)
(-0.329564 -0.167421 0)
(0.27408 0.0250959 0)
(-0.0163339 -0.175511 0)
(-0.180209 0.161324 0)
(-0.899617 0.383807 0)
(-1.65016 0.441818 0)
(-2.18287 0.279703 0)
(-2.3084 0.0979351 0)
(-2.2942 0.0125847 0)
(-2.23823 -0.0255569 0)
(-2.16593 -0.048468 0)
(-2.0949 -0.0673917 0)
(-2.02241 -0.0877468 0)
(-1.92787 -0.104056 0)
(-1.8518 -0.112339 0)
(-1.77943 -0.126341 0)
(-1.65334 -0.162416 0)
(-1.43385 -0.253262 0)
(-1.07931 -0.396145 0)
(-0.612365 -0.39842 0)
(-0.0868815 -0.0381461 0)
(-0.0733695 -0.070772 0)
(-0.641399 0.461115 0)
(-1.44677 0.715589 0)
(-2.0839 0.704723 0)
(-2.34758 0.461118 0)
(-2.34369 0.232622 0)
(-2.47141 0.114627 0)
(-2.64537 0.0759405 0)
(-2.84911 0.0556923 0)
(-2.85671 0.0304627 0)
(-2.40642 -0.0577731 0)
(-1.83496 -0.121729 0)
(-1.60548 -0.119861 0)
(-1.60281 -0.186188 0)
(-1.5803 -0.288674 0)
(-1.44133 -0.442023 0)
(-1.15053 -0.640185 0)
(-0.747551 -0.689183 0)
(-0.2838 -0.2849 0)
(-0.226563 0.342641 0)
(-0.831552 0.764621 0)
(-1.54472 1.04943 0)
(-2.07824 1.0004 0)
(-2.55826 0.772645 0)
(-3.80082 0.490861 0)
(-4.62656 0.263534 0)
(-4.51315 0.0907624 0)
(-4.29978 -0.0817553 0)
(-3.87645 -0.311455 0)
(-2.8983 -0.620244 0)
(-2.50018 -0.758785 0)
(-2.16516 -0.307841 0)
(-1.27369 -0.142334 0)
(-1.30501 -0.197978 0)
(-1.25366 -0.428687 0)
(-1.04427 -0.813326 0)
(-0.700744 -0.954646 0)
(-0.343767 -0.577315 0)
(-0.115064 0.550387 0)
(-0.717367 1.01436 0)
(-1.32478 1.3597 0)
(-1.80461 1.33614 0)
(-2.36839 1.23365 0)
(-3.01839 0.802481 0)
(-2.52134 0.199338 0)
(-1.90033 -0.170275 0)
(-1.60534 -0.356633 0)
(-1.15162 -0.482259 0)
(-0.0199391 -0.629262 0)
(-0.387985 -0.746168 0)
(-1.34405 -0.610582 0)
(-0.896125 -0.314631 0)
(-0.857835 -0.171851 0)
(-0.809692 -0.370838 0)
(-0.821909 -0.900665 0)
(-0.552672 -1.16788 0)
(-0.295511 -0.853188 0)
(0.00577492 0.756472 0)
(-0.348456 1.18198 0)
(-0.857047 1.59979 0)
(-0.821238 1.72909 0)
(-1.3005 1.4749 0)
(-1.27527 0.749311 0)
(0.0736891 -0.133092 0)
(0.988058 -0.518503 0)
(1.18818 -0.617555 0)
(1.19266 -0.547443 0)
(1.2068 -0.509013 0)
(1.00985 -0.487456 0)
(0.314813 -0.463521 0)
(-0.0630446 -0.380489 0)
(0.0255708 -0.242305 0)
(0.086576 -0.186304 0)
(-0.497435 -0.763874 0)
(-0.385972 -1.27905 0)
(-0.18963 -1.08209 0)
(0.124215 0.822591 0)
(0.0134679 1.23108 0)
(-0.445666 1.59151 0)
(0.44794 1.89395 0)
(0.308174 1.51395 0)
(0.842132 0.360502 0)
(1.72446 -0.760229 0)
(1.75899 -0.760111 0)
(1.57479 -0.529927 0)
(1.42702 -0.492027 0)
(1.34902 -0.456333 0)
(1.28822 -0.368558 0)
(1.16804 -0.342935 0)
(0.898813 -0.296725 0)
(0.767672 -0.176779 0)
(0.738804 -0.222305 0)
(0.162482 -0.359765 0)
(-0.226276 -1.23393 0)
(-0.0849076 -1.24174 0)
(0.243811 0.821667 0)
(0.353767 1.3346 0)
(-0.094378 1.43579 0)
(0.743924 1.56105 0)
(1.22308 1.25874 0)
(1.89989 0.0264823 0)
(2.02484 -0.796729 0)
(1.70027 -0.490455 0)
(1.43032 -0.390036 0)
(1.31131 -0.457955 0)
(1.25604 -0.447188 0)
(1.21425 -0.346185 0)
(1.127 -0.276352 0)
(0.992715 -0.229458 0)
(0.984987 -0.0912033 0)
(1.00994 -0.0673792 0)
(0.59468 -0.0853776 0)
(-0.0867665 -1.058 0)
(-0.0134645 -1.32057 0)
(0.0537465 -0.059876 0)
(0.127235 -0.101141 0)
(0.119006 -0.0748695 0)
(0.0938332 -0.0366054 0)
(0.0694497 -0.000491881 0)
(0.0497623 0.0224743 0)
(0.0326417 0.0192141 0)
(0.0222892 0.0134746 0)
(0.0149266 0.0204225 0)
(0.00801072 0.0337858 0)
(-0.00175488 0.0523335 0)
(-0.0193091 0.0682027 0)
(-0.0407328 0.0680735 0)
(-0.0478445 0.0481132 0)
(-0.0435685 0.0365586 0)
(-0.0418756 0.0264718 0)
(-0.0391719 0.0154762 0)
(-0.0297767 0.00499364 0)
(-0.0150856 -0.00292197 0)
(-0.00199476 -0.0169294 0)
(0.0049285 -0.0332169 0)
(0.00922383 -0.0685524 0)
(-0.0246343 -0.0529751 0)
(-0.0633941 -0.0562257 0)
(-0.759212 0.0393719 0)
(-0.696032 0.0589873 0)
(-0.498197 0.022844 0)
(-0.346026 0.00972829 0)
(-0.268096 0.00513432 0)
(-0.258804 0.00407044 0)
(-0.24535 0.0177289 0)
(-0.206991 0.0308208 0)
(-0.1598 0.0375051 0)
(-0.107357 0.0484664 0)
(-0.0714685 0.061548 0)
(-0.048944 0.0546414 0)
(-0.0237189 0.0296581 0)
(-0.0172299 0.030081 0)
(-0.0282815 0.0347669 0)
(-0.0411458 0.0253569 0)
(-0.0363775 0.000379384 0)
(-0.0223167 -0.0134356 0)
(-0.013181 -0.0275877 0)
(-0.00723811 -0.0406576 0)
(-0.00769696 -0.0619468 0)
(-0.018282 -0.0463521 0)
(0.044024 0.390488 0)
(-0.326684 0.314758 0)
(-0.336878 -0.0834757 0)
(-0.452289 -0.352057 0)
(-0.681877 -0.209121 0)
(-0.812581 -0.0532336 0)
(-0.933429 -0.0024867 0)
(-0.988713 -0.0379362 0)
(-0.94356 -0.0682873 0)
(-0.772992 -0.0507858 0)
(-0.570904 -0.0159619 0)
(-0.411206 0.017299 0)
(-0.316065 0.0203829 0)
(-0.238317 0.016423 0)
(-0.130557 0.0366645 0)
(-0.0705045 0.046678 0)
(-0.0351754 0.0275199 0)
(0.00305841 -0.0109587 0)
(0.0143339 -0.0224617 0)
(0.00361195 -0.0257205 0)
(0.00203234 -0.0419535 0)
(0.00821687 -0.0607052 0)
(0.00627467 -0.0588337 0)
(0.0165837 0.382952 0)
(0.0416927 0.531848 0)
(-0.0327862 0.240732 0)
(-0.123691 0.162827 0)
(-0.292341 0.198785 0)
(-0.404739 0.179059 0)
(-0.438275 0.133313 0)
(-0.438215 0.0118703 0)
(-0.504009 -0.119508 0)
(-0.631224 -0.23149 0)
(-0.763305 -0.320515 0)
(-0.847062 -0.188083 0)
(-0.848142 -0.149958 0)
(-0.764727 -0.163402 0)
(-0.581112 -0.132371 0)
(-0.425951 -0.0660401 0)
(-0.342679 -0.0491509 0)
(-0.254282 -0.0395582 0)
(-0.173473 -0.0170232 0)
(-0.128866 -0.015143 0)
(-0.081605 -0.0426601 0)
(-0.0171239 -0.0586471 0)
(0.00114118 -0.0545898 0)
(-0.0504792 0.294178 0)
(0.110475 0.439379 0)
(0.095932 0.279914 0)
(0.0509259 0.0362075 0)
(0.0145544 0.0623652 0)
(-0.00793452 0.180557 0)
(-0.00552988 0.121821 0)
(0.0162002 0.0470596 0)
(0.00467338 0.0650642 0)
(-0.0358938 0.160506 0)
(-0.190165 0.145625 0)
(-0.333323 -0.00404119 0)
(-0.420706 -0.0598675 0)
(-0.488132 -0.107382 0)
(-0.608447 -0.275833 0)
(-0.799526 -0.181705 0)
(-0.91782 -0.112457 0)
(-1.00421 -0.181079 0)
(-1.0224 -0.189327 0)
(-0.851191 -0.168299 0)
(-0.602524 -0.18734 0)
(-0.449027 -0.12427 0)
(-0.379162 -0.0542863 0)
(-0.0574425 0.291182 0)
(0.0619469 0.301805 0)
(0.120916 0.253078 0)
(0.124467 0.149227 0)
(0.0485987 0.156372 0)
(0.0574392 0.167703 0)
(0.0612315 0.105985 0)
(0.0131744 0.0330765 0)
(-0.0450762 -0.0264801 0)
(-0.0500769 -0.0123707 0)
(-0.0120242 0.0863707 0)
(-0.0412881 0.0351612 0)
(-0.115111 0.0468265 0)
(-0.171358 0.0176518 0)
(-0.193794 0.0418579 0)
(-0.26177 0.134165 0)
(-0.32808 0.136615 0)
(-0.432446 0.0231532 0)
(-0.61864 -0.0987058 0)
(-0.817782 -0.177312 0)
(-1.09615 -0.343092 0)
(-1.40657 -0.207535 0)
(-1.44685 -0.0564945 0)
(-0.0299755 0.296347 0)
(0.0317149 0.231196 0)
(0.0824892 0.229408 0)
(0.0911377 0.176108 0)
(0.0383196 0.170707 0)
(0.0378963 0.170005 0)
(0.0351922 0.140298 0)
(0.00324919 0.108682 0)
(-0.0400062 0.0850619 0)
(-0.0922707 0.082046 0)
(-0.0908751 0.0970509 0)
(-0.0965189 0.0992333 0)
(-0.136146 0.0612769 0)
(-0.162701 -0.0433091 0)
(-0.205306 -0.0592546 0)
(-0.222722 -0.000504791 0)
(-0.20343 0.0645038 0)
(-0.210806 0.0997963 0)
(-0.245288 0.155553 0)
(-0.311098 0.210547 0)
(-0.362002 0.132847 0)
(-0.518802 0.00115333 0)
(-1.13373 -0.150174 0)
(-0.0107309 0.287814 0)
(0.0176451 0.195321 0)
(0.0410048 0.214606 0)
(0.047616 0.185201 0)
(0.0278595 0.176026 0)
(0.0257292 0.173249 0)
(0.0153621 0.160308 0)
(-0.00807838 0.13688 0)
(-0.0433569 0.102938 0)
(-0.0813283 0.0793376 0)
(-0.0969837 0.085069 0)
(-0.0934452 0.0957664 0)
(-0.0857952 0.095663 0)
(-0.0928819 0.0614369 0)
(-0.144428 0.0610625 0)
(-0.181565 0.0870167 0)
(-0.197849 0.0985505 0)
(-0.207882 0.0876022 0)
(-0.218239 0.0552436 0)
(-0.206039 0.0347666 0)
(-0.131611 0.0163142 0)
(-0.0876073 0.227857 0)
(-0.207921 0.405165 0)
(-0.00537001 0.285277 0)
(0.00714595 0.176547 0)
(0.01897 0.202981 0)
(0.02601 0.192201 0)
(0.0181193 0.185963 0)
(0.0167368 0.179517 0)
(0.00979079 0.172669 0)
(-0.00250107 0.159444 0)
(-0.0234143 0.138677 0)
(-0.0498645 0.118831 0)
(-0.0731468 0.105401 0)
(-0.0835211 0.0919392 0)
(-0.0796011 0.0741959 0)
(-0.0888664 0.0438534 0)
(-0.112469 0.0461546 0)
(-0.127949 0.0683009 0)
(-0.13206 0.0924739 0)
(-0.117745 0.104416 0)
(-0.094346 0.0987955 0)
(-0.0721291 0.0873072 0)
(-0.0356505 0.0254505 0)
(-0.000628017 0.162447 0)
(0.110246 0.504061 0)
(-0.00415638 0.286631 0)
(0.00240926 0.168045 0)
(0.0089855 0.194112 0)
(0.0155344 0.192847 0)
(0.0113943 0.188435 0)
(0.0108592 0.183169 0)
(0.00848104 0.179555 0)
(0.00427299 0.172713 0)
(-0.0058639 0.158535 0)
(-0.0219222 0.138838 0)
(-0.037719 0.118583 0)
(-0.0497475 0.101161 0)
(-0.0578531 0.089556 0)
(-0.0733692 0.0793511 0)
(-0.0961578 0.0808425 0)
(-0.112451 0.0896826 0)
(-0.116639 0.0880406 0)
(-0.103556 0.0676231 0)
(-0.0823825 0.036416 0)
(-0.0466723 0.00964571 0)
(-0.0231446 -0.0262046 0)
(0.00615606 0.102383 0)
(0.0204109 0.472133 0)
(-0.00167816 0.287219 0)
(0.00159856 0.163864 0)
(0.00379624 0.188503 0)
(0.00862213 0.191917 0)
(0.00637159 0.188357 0)
(0.00608709 0.183936 0)
(0.00506656 0.180819 0)
(0.00398439 0.175967 0)
(0.000157523 0.165536 0)
(-0.00794316 0.149824 0)
(-0.0189381 0.132382 0)
(-0.0329652 0.115688 0)
(-0.0486167 0.102913 0)
(-0.0673527 0.0937095 0)
(-0.0878802 0.0935265 0)
(-0.101806 0.0961908 0)
(-0.10658 0.0872815 0)
(-0.104984 0.0630395 0)
(-0.100537 0.0334679 0)
(-0.0837641 -0.000603294 0)
(-0.0913541 -0.0426113 0)
(-0.112007 0.11128 0)
(-0.101223 0.471813 0)
(0.00122339 0.285879 0)
(0.00166948 0.163374 0)
(0.00107604 0.185581 0)
(0.00391121 0.191684 0)
(0.00207836 0.188973 0)
(0.00131292 0.184761 0)
(-0.000151594 0.181238 0)
(-0.00106179 0.176884 0)
(-0.00312431 0.169423 0)
(-0.00852957 0.157845 0)
(-0.0181549 0.14417 0)
(-0.0323056 0.131068 0)
(-0.0493823 0.121366 0)
(-0.0688589 0.114741 0)
(-0.0878735 0.111709 0)
(-0.101775 0.10768 0)
(-0.111686 0.0939359 0)
(-0.1221 0.0676991 0)
(-0.130093 0.0365795 0)
(-0.14064 0.00359743 0)
(-0.188416 -0.0236047 0)
(-0.234818 0.10712 0)
(-0.219602 0.410652 0)
(0.00303216 0.283207 0)
(0.00166829 0.165137 0)
(-0.000286346 0.184946 0)
(0.000679108 0.192112 0)
(-0.00139911 0.190209 0)
(-0.00290697 0.1865 0)
(-0.00534219 0.182989 0)
(-0.00760685 0.17889 0)
(-0.0107016 0.17315 0)
(-0.0162851 0.164986 0)
(-0.0255733 0.155514 0)
(-0.0390138 0.146546 0)
(-0.0553294 0.139518 0)
(-0.0734155 0.133728 0)
(-0.0913076 0.128736 0)
(-0.107229 0.122185 0)
(-0.12303 0.108968 0)
(-0.141365 0.0856654 0)
(-0.158138 0.0574193 0)
(-0.182413 0.0319708 0)
(-0.240812 0.0200688 0)
(-0.306573 0.118225 0)
(-0.316414 0.348567 0)
(0.0035034 0.28026 0)
(0.00141619 0.167385 0)
(-0.0010812 0.185885 0)
(-0.00172925 0.193324 0)
(-0.00404078 0.192011 0)
(-0.00626462 0.189037 0)
(-0.0095113 0.186044 0)
(-0.0131973 0.182553 0)
(-0.0178033 0.178234 0)
(-0.0242605 0.172885 0)
(-0.0335454 0.166951 0)
(-0.0460284 0.161176 0)
(-0.0608998 0.156188 0)
(-0.0775745 0.151498 0)
(-0.0956009 0.146802 0)
(-0.114657 0.141087 0)
(-0.136322 0.130912 0)
(-0.162811 0.111261 0)
(-0.194436 0.0852746 0)
(-0.237807 0.0694679 0)
(-0.301113 0.0871984 0)
(-0.370581 0.168728 0)
(-0.397278 0.316697 0)
(0.0031572 0.277873 0)
(0.000893833 0.169634 0)
(-0.00175356 0.187754 0)
(-0.00350421 0.195287 0)
(-0.00603662 0.194354 0)
(-0.00876771 0.192165 0)
(-0.0124567 0.189967 0)
(-0.0169235 0.18743 0)
(-0.0224569 0.184511 0)
(-0.0295001 0.181257 0)
(-0.0386172 0.17785 0)
(-0.0500743 0.174551 0)
(-0.0636833 0.171655 0)
(-0.0794238 0.169009 0)
(-0.0976227 0.166508 0)
(-0.11879 0.163756 0)
(-0.144007 0.1591 0)
(-0.176276 0.149233 0)
(-0.221887 0.13478 0)
(-0.284793 0.127824 0)
(-0.356413 0.150305 0)
(-0.425484 0.216065 0)
(-0.472305 0.310912 0)
(0.00253191 0.276258 0)
(0.000274307 0.171834 0)
(-0.00243843 0.190236 0)
(-0.004768 0.197673 0)
(-0.00746029 0.197064 0)
(-0.0104823 0.195599 0)
(-0.0143203 0.194255 0)
(-0.0189938 0.192763 0)
(-0.0247528 0.191149 0)
(-0.0318291 0.189521 0)
(-0.0405143 0.188016 0)
(-0.0510506 0.186789 0)
(-0.0636085 0.18604 0)
(-0.0783925 0.185908 0)
(-0.0958467 0.186469 0)
(-0.116757 0.187598 0)
(-0.142259 0.189197 0)
(-0.174704 0.190726 0)
(-0.219723 0.19121 0)
(-0.282505 0.195662 0)
(-0.357173 0.220036 0)
(-0.430913 0.273311 0)
(-0.494892 0.343585 0)
(0.00196578 0.275268 0)
(-0.000276973 0.174061 0)
(-0.00306488 0.192999 0)
(-0.00559174 0.200265 0)
(-0.008356 0.199959 0)
(-0.0114865 0.199135 0)
(-0.0152968 0.198562 0)
(-0.0198624 0.198037 0)
(-0.0254054 0.197586 0)
(-0.0321107 0.197328 0)
(-0.04017 0.197409 0)
(-0.049818 0.198007 0)
(-0.0613094 0.19932 0)
(-0.0749082 0.201615 0)
(-0.0909976 0.205173 0)
(-0.110266 0.210318 0)
(-0.13376 0.217622 0)
(-0.162871 0.22781 0)
(-0.200621 0.241263 0)
(-0.251485 0.260272 0)
(-0.314761 0.292127 0)
(-0.381391 0.341363 0)
(-0.443913 0.402219 0)
(0.00157127 0.274722 0)
(-0.000673657 0.176388 0)
(-0.00353556 0.195823 0)
(-0.00602183 0.202908 0)
(-0.00876757 0.202897 0)
(-0.0118541 0.20263 0)
(-0.0155187 0.202717 0)
(-0.0198245 0.203016 0)
(-0.0249502 0.203565 0)
(-0.0310688 0.204487 0)
(-0.0383426 0.205945 0)
(-0.0469811 0.208142 0)
(-0.0572015 0.211321 0)
(-0.069256 0.215804 0)
(-0.0834682 0.222003 0)
(-0.100297 0.230501 0)
(-0.120392 0.242139 0)
(-0.144525 0.258023 0)
(-0.1739 0.279542 0)
(-0.210383 0.308944 0)
(-0.254692 0.349305 0)
(-0.303553 0.401517 0)
(-0.35269 0.462578 0)
(0.00133647 0.274442 0)
(-0.000883392 0.178816 0)
(-0.00379467 0.198597 0)
(-0.00610655 0.205483 0)
(-0.00874175 0.205752 0)
(-0.0116582 0.205965 0)
(-0.0150696 0.20661 0)
(-0.0190107 0.207589 0)
(-0.0236151 0.208965 0)
(-0.0290214 0.210869 0)
(-0.0353652 0.213481 0)
(-0.0428096 0.217011 0)
(-0.051509 0.22174 0)
(-0.0616504 0.228016 0)
(-0.0734477 0.236319 0)
(-0.087146 0.247327 0)
(-0.103028 0.26198 0)
(-0.121425 0.281434 0)
(-0.142698 0.307104 0)
(-0.166841 0.341023 0)
(-0.193353 0.385392 0)
(-0.221441 0.440843 0)
(-0.25008 0.506104 0)
(0.00121772 0.274288 0)
(-0.000926902 0.1813 0)
(-0.00383261 0.201231 0)
(-0.00589168 0.207897 0)
(-0.00833275 0.208417 0)
(-0.0109781 0.209032 0)
(-0.0140367 0.210138 0)
(-0.0175141 0.211663 0)
(-0.0215089 0.21369 0)
(-0.026109 0.216363 0)
(-0.0314097 0.219867 0)
(-0.0375169 0.224419 0)
(-0.0445219 0.230306 0)
(-0.0525281 0.237879 0)
(-0.0616219 0.247633 0)
(-0.071868 0.260244 0)
(-0.0832787 0.276633 0)
(-0.0958022 0.297878 0)
(-0.109309 0.325137 0)
(-0.123162 0.359857 0)
(-0.135889 0.403758 0)
(-0.146122 0.458239 0)
(-0.153206 0.524217 0)
(0.00118281 0.274162 0)
(-0.0008389 0.183758 0)
(-0.00367042 0.20365 0)
(-0.00542148 0.210076 0)
(-0.00760291 0.210805 0)
(-0.00990013 0.211743 0)
(-0.0125275 0.21321 0)
(-0.0154603 0.215148 0)
(-0.0187676 0.217654 0)
(-0.0224929 0.22088 0)
(-0.0266828 0.225006 0)
(-0.0313875 0.230254 0)
(-0.0366377 0.236891 0)
(-0.0424525 0.245254 0)
(-0.0488109 0.255805 0)
(-0.055627 0.269164 0)
(-0.0627114 0.286144 0)
(-0.0697323 0.307677 0)
(-0.0762036 0.334655 0)
(-0.0812766 0.367976 0)
(-0.0833342 0.408673 0)
(-0.0801683 0.458057 0)
(-0.0697864 0.517932 0)
(0.00121979 0.273963 0)
(-0.000645243 0.186133 0)
(-0.0033432 0.205801 0)
(-0.00474376 0.211963 0)
(-0.00661774 0.212854 0)
(-0.00851381 0.214034 0)
(-0.0106583 0.215757 0)
(-0.0129964 0.21798 0)
(-0.0155667 0.220801 0)
(-0.0183801 0.224372 0)
(-0.0214406 0.228865 0)
(-0.0247465 0.234493 0)
(-0.0282741 0.2415 0)
(-0.0319681 0.250186 0)
(-0.0357144 0.260953 0)
(-0.0393215 0.274325 0)
(-0.0424631 0.290971 0)
(-0.0446549 0.311632 0)
(-0.0451995 0.336959 0)
(-0.0431137 0.367418 0)
(-0.0369016 0.403389 0)
(-0.024266 0.445282 0)
(-0.00293631 0.494381 0)
(0.00131576 0.273606 0)
(-0.000372964 0.188378 0)
(-0.00288203 0.207651 0)
(-0.00390504 0.21352 0)
(-0.00544109 0.21452 0)
(-0.00690501 0.215863 0)
(-0.0085396 0.217742 0)
(-0.010261 0.220126 0)
(-0.0120823 0.22311 0)
(-0.0139857 0.226835 0)
(-0.0159406 0.231464 0)
(-0.0179034 0.23719 0)
(-0.0198039 0.244224 0)
(-0.0215282 0.252823 0)
(-0.0229017 0.263314 0)
(-0.0236592 0.276102 0)
(-0.0233959 0.291712 0)
(-0.0215595 0.310688 0)
(-0.0173903 0.333466 0)
(-0.00984517 0.360104 0)
(0.00227673 0.390608 0)
(0.0210099 0.424595 0)
(0.0485277 0.462098 0)
(0.00144427 0.273013 0)
(-4.72835e-05 0.190465 0)
(-0.00230631 0.209173 0)
(-0.00294591 0.214726 0)
(-0.00412787 0.215784 0)
(-0.00514705 0.217213 0)
(-0.0062674 0.219154 0)
(-0.00737598 0.221585 0)
(-0.00846724 0.224593 0)
(-0.00949781 0.228305 0)
(-0.0104093 0.23287 0)
(-0.0111309 0.238452 0)
(-0.0115547 0.245225 0)
(-0.0115209 0.253394 0)
(-0.0108269 0.263217 0)
(-0.00916677 0.274993 0)
(-0.0060934 0.289058 0)
(-0.0010451 0.305813 0)
(0.00662122 0.32553 0)
(0.0180066 0.348054 0)
(0.0342193 0.372945 0)
(0.0566182 0.399456 0)
(0.0867928 0.426759 0)
(0.00157109 0.272169 0)
(0.000313362 0.192317 0)
(-0.00162843 0.210345 0)
(-0.00189226 0.215572 0)
(-0.00271909 0.21664 0)
(-0.00329817 0.218085 0)
(-0.00391885 0.220005 0)
(-0.00444115 0.222382 0)
(-0.0048458 0.225293 0)
(-0.00506934 0.228851 0)
(-0.00503532 0.233183 0)
(-0.00465055 0.238426 0)
(-0.00378491 0.244704 0)
(-0.00224048 0.25218 0)
(0.000204436 0.261047 0)
(0.00380988 0.271483 0)
(0.00904894 0.283742 0)
(0.0165324 0.298059 0)
(0.0268296 0.314476 0)
(0.0407875 0.332876 0)
(0.0593238 0.352432 0)
(0.0835101 0.37218 0)
(0.114186 0.391043 0)
(0.00167503 0.27107 0)
(0.000707587 0.193873 0)
(-0.000864336 0.211143 0)
(-0.00076063 0.216072 0)
(-0.00124481 0.217093 0)
(-0.00139884 0.218497 0)
(-0.00155089 0.220327 0)
(-0.00153299 0.22256 0)
(-0.00131641 0.225276 0)
(-0.000821295 0.22856 0)
(4.25953e-05 0.23252 0)
(0.00136269 0.23726 0)
(0.00330039 0.242883 0)
(0.00609596 0.249513 0)
(0.00993009 0.25721 0)
(0.0150837 0.266141 0)
(0.0220244 0.276426 0)
(0.031201 0.288222 0)
(0.0432157 0.301398 0)
(0.0587394 0.315762 0)
(0.0783878 0.330466 0)
(0.103001 0.344461 0)
(0.132918 0.356557 0)
(0.00175636 0.2697 0)
(0.00114191 0.195074 0)
(-3.32017e-05 0.211573 0)
(0.000436313 0.216233 0)
(0.000260331 0.21716 0)
(0.000520203 0.218477 0)
(0.000790149 0.220158 0)
(0.00129106 0.222188 0)
(0.00205271 0.224632 0)
(0.00315758 0.227554 0)
(0.00470528 0.231038 0)
(0.00680506 0.235166 0)
(0.00963836 0.240016 0)
(0.0133798 0.245663 0)
(0.0182828 0.252105 0)
(0.0245884 0.259453 0)
(0.0326938 0.267711 0)
(0.043009 0.276953 0)
(0.0560187 0.28709 0)
(0.0722802 0.29774 0)
(0.0922083 0.308174 0)
(0.116405 0.317339 0)
(0.144922 0.324116 0)
(0.00183544 0.268038 0)
(0.00164963 0.195911 0)
(0.000835768 0.211633 0)
(0.00165211 0.216051 0)
(0.00176186 0.216867 0)
(0.00242041 0.218066 0)
(0.00306894 0.219552 0)
(0.00399827 0.221343 0)
(0.00522224 0.223458 0)
(0.00683073 0.225955 0)
(0.00893605 0.228899 0)
(0.011641 0.232347 0)
(0.0151351 0.236345 0)
(0.0196028 0.240914 0)
(0.0252556 0.24608 0)
(0.0323228 0.251799 0)
(0.0411434 0.258103 0)
(0.05209 0.264911 0)
(0.0655221 0.272198 0)
(0.0819056 0.279529 0)
(0.101549 0.286263 0)
(0.124827 0.29138 0)
(0.151682 0.293953 0)
(0.0019597 0.266038 0)
(0.00222537 0.196411 0)
(0.0016772 0.211311 0)
(0.00285176 0.21555 0)
(0.00322876 0.216238 0)
(0.00425062 0.217297 0)
(0.00524097 0.218561 0)
(0.00654933 0.220078 0)
(0.0081582 0.221832 0)
(0.0101867 0.223882 0)
(0.0127325 0.22625 0)
(0.0158998 0.228975 0)
(0.0198621 0.232098 0)
(0.0248061 0.235592 0)
(0.0309246 0.239449 0)
(0.0384262 0.243592 0)
(0.0475779 0.248013 0)
(0.0587143 0.252586 0)
(0.0721255 0.25724 0)
(0.0881841 0.261648 0)
(0.107119 0.265157 0)
(0.12918 0.26685 0)
(0.154294 0.265999 0)
(0.00218053 0.263611 0)
(0.00286069 0.196651 0)
(0.00245307 0.210653 0)
(0.00398809 0.214767 0)
(0.00459335 0.215294 0)
(0.00595743 0.216203 0)
(0.00724045 0.217226 0)
(0.00888724 0.218447 0)
(0.0108414 0.219834 0)
(0.0132179 0.221425 0)
(0.0161032 0.223215 0)
(0.0196197 0.225224 0)
(0.0239129 0.227463 0)
(0.0291424 0.229909 0)
(0.0354825 0.232498 0)
(0.0431429 0.235155 0)
(0.0523413 0.237819 0)
(0.0633293 0.24036 0)
(0.0763792 0.242653 0)
(0.0917804 0.244463 0)
(0.1097 0.245148 0)
(0.13036 0.243905 0)
(0.153702 0.240121 0)
(0.0025187 0.260689 0)
(0.00351517 0.19674 0)
(0.00312673 0.209738 0)
(0.00500017 0.213731 0)
(0.00578649 0.214077 0)
(0.00746022 0.214819 0)
(0.00898153 0.215585 0)
(0.0109357 0.216506 0)
(0.0131858 0.217523 0)
(0.0158603 0.218643 0)
(0.0190306 0.219869 0)
(0.0228101 0.22119 0)
(0.027335 0.222589 0)
(0.0327305 0.224033 0)
(0.0391548 0.225435 0)
(0.0468053 0.226737 0)
(0.0558446 0.227805 0)
(0.0664741 0.228523 0)
(0.0789459 0.228737 0)
(0.0934785 0.228237 0)
(0.110225 0.226447 0)
(0.129384 0.222633 0)
(0.150908 0.216193 0)
(0.00295535 0.257227 0)
(0.00414384 0.196756 0)
(0.00365619 0.208646 0)
(0.00582237 0.212479 0)
(0.00672264 0.212628 0)
(0.00865902 0.213186 0)
(0.0103544 0.213686 0)
(0.0125655 0.214298 0)
(0.0150482 0.214938 0)
(0.0179645 0.215595 0)
(0.021372 0.216271 0)
(0.0253645 0.216939 0)
(0.0300635 0.21756 0)
(0.0355606 0.218071 0)
(0.042012 0.218406 0)
(0.0495734 0.218465 0)
(0.0583731 0.2181 0)
(0.0685735 0.217217 0)
(0.0803853 0.215625 0)
(0.0939965 0.213098 0)
(0.109556 0.209148 0)
(0.127212 0.203053 0)
(0.146926 0.194184 0)
(0.00347296 0.253211 0)
(0.00471533 0.196795 0)
(0.00399666 0.207469 0)
(0.00638825 0.211058 0)
(0.00730961 0.211009 0)
(0.00944187 0.211363 0)
(0.0112149 0.211585 0)
(0.0135991 0.211879 0)
(0.0162291 0.212129 0)
(0.019305 0.212336 0)
(0.0228801 0.212476 0)
(0.0270199 0.212511 0)
(0.03182 0.212403 0)
(0.0373814 0.212062 0)
(0.0438219 0.211427 0)
(0.0512496 0.210364 0)
(0.0598109 0.20874 0)
(0.0696184 0.206437 0)
(0.0808136 0.203275 0)
(0.0935808 0.198994 0)
(0.108069 0.193165 0)
(0.12436 0.18508 0)
(0.142395 0.174093 0)
(0.00404858 0.248635 0)
(0.00518833 0.196987 0)
(0.00411942 0.206334 0)
(0.00665402 0.209548 0)
(0.00746832 0.209305 0)
(0.00969143 0.209448 0)
(0.0114325 0.209381 0)
(0.013871 0.209346 0)
(0.0165247 0.209194 0)
(0.0196415 0.208949 0)
(0.0232437 0.208558 0)
(0.02741 0.207974 0)
(0.0322151 0.207165 0)
(0.0377334 0.206036 0)
(0.0440781 0.204497 0)
(0.0513282 0.202423 0)
(0.0596078 0.199687 0)
(0.0690208 0.196124 0)
(0.0796709 0.191569 0)
(0.0916964 0.185749 0)
(0.105226 0.178275 0)
(0.120334 0.168503 0)
(0.13688 0.155783 0)
(0.00464456 0.24355 0)
(0.00552864 0.197491 0)
(0.00401058 0.205421 0)
(0.0065868 0.208109 0)
(0.00716707 0.207679 0)
(0.00937157 0.207615 0)
(0.0109388 0.20725 0)
(0.0132959 0.206877 0)
(0.0158258 0.206324 0)
(0.0188255 0.205613 0)
(0.0222869 0.204689 0)
(0.0262996 0.203521 0)
(0.0309252 0.202034 0)
(0.0362262 0.200157 0)
(0.0423004 0.19778 0)
(0.0492187 0.194762 0)
(0.0570783 0.190997 0)
(0.0659682 0.186302 0)
(0.0759783 0.180496 0)
(0.0872177 0.1733 0)
(0.099775 0.164372 0)
(0.11373 0.153169 0)
(0.128838 0.139061 0)
(0.00518037 0.238124 0)
(0.0056961 0.198366 0)
(0.00371118 0.20483 0)
(0.00621348 0.206864 0)
(0.00644909 0.206282 0)
(0.00852501 0.205999 0)
(0.00979809 0.205344 0)
(0.0119557 0.204642 0)
(0.0142072 0.203696 0)
(0.0169239 0.202534 0)
(0.0200779 0.20111 0)
(0.0237389 0.199381 0)
(0.0279645 0.197264 0)
(0.0328205 0.194684 0)
(0.0383691 0.191517 0)
(0.0446958 0.187633 0)
(0.05188 0.18291 0)
(0.0599844 0.177176 0)
(0.0690878 0.170234 0)
(0.0792735 0.161826 0)
(0.0905751 0.151629 0)
(0.103073 0.139194 0)
(0.11648 0.123964 0)
(0.00561333 0.232454 0)
(0.00566287 0.19954 0)
(0.00325647 0.20453 0)
(0.00560311 0.20578 0)
(0.00544054 0.205119 0)
(0.00730544 0.204577 0)
(0.00820877 0.203671 0)
(0.0100742 0.202663 0)
(0.0119376 0.201361 0)
(0.0142591 0.199796 0)
(0.0169551 0.19792 0)
(0.020089 0.195676 0)
(0.0237212 0.192999 0)
(0.0279078 0.189784 0)
(0.0327065 0.185905 0)
(0.0381831 0.181249 0)
(0.0443964 0.175682 0)
(0.0513961 0.169041 0)
(0.0592534 0.161123 0)
(0.0680165 0.151692 0)
(0.077636 0.140449 0)
(0.0881864 0.127052 0)
(0.099366 0.111003 0)
(0.00581645 0.226585 0)
(0.00538757 0.200918 0)
(0.00274361 0.204488 0)
(0.00484026 0.204864 0)
(0.00432454 0.20419 0)
(0.00590978 0.203358 0)
(0.00646171 0.202254 0)
(0.00798928 0.200963 0)
(0.00941667 0.199352 0)
(0.0112714 0.19744 0)
(0.0134221 0.195163 0)
(0.0159425 0.192484 0)
(0.0188804 0.18932 0)
(0.022275 0.185556 0)
(0.0261764 0.181076 0)
(0.0306434 0.175764 0)
(0.0357102 0.169493 0)
(0.0414046 0.162105 0)
(0.0477752 0.153409 0)
(0.0548247 0.143179 0)
(0.0624759 0.131154 0)
(0.0707298 0.117101 0)
(0.0793232 0.100599 0)
(0.00556384 0.221057 0)
(0.00479074 0.202588 0)
(0.0022662 0.204858 0)
(0.00401809 0.204394 0)
(0.00329219 0.203728 0)
(0.00457814 0.202606 0)
(0.00484257 0.201357 0)
(0.00602436 0.199811 0)
(0.00704392 0.19795 0)
(0.00843818 0.195752 0)
(0.0100547 0.193163 0)
(0.0119646 0.190138 0)
(0.0141972 0.186572 0)
(0.0168006 0.18236 0)
(0.0198046 0.177403 0)
(0.0232375 0.171586 0)
(0.0271282 0.164766 0)