/*--------------------------------*- C++ -*----------------------------------*\
| =========                 |                                                 |
| \\      /  F ield         | OpenFOAM: The Open Source CFD Toolbox           |
|  \\    /   O peration     | Version:  2206                                  |
|   \\  /    A nd           | Website:  www.openfoam.com                      |
|    \\/     M anipulation  |                                                 |
\*---------------------------------------------------------------------------*/
FoamFile
{
    version     2.0;
    format      ascii;
    arch        "LSB;label=32;scalar=64";
    class       volScalarField;
    location    "0.575";
    object      p;
}
// * * * * * * * * * * * * * * * * * * * * * * * * * * * * * * * * * * * * * //

dimensions      [1 -1 -2 0 0 0 0];

internalField   nonuniform List<scalar> 
2268
(
801.323
801.565
802.201
803.254
804.154
805.021
805.924
806.971
808.235
809.734
811.461
813.374
815.439
817.619
819.869
822.125
824.292
826.236
827.8
828.845
829.543
830.325
831.379
742.094
742.303
742.931
744.04
744.943
745.838
746.771
747.848
749.141
750.667
752.405
754.325
756.388
758.559
760.802
763.07
765.285
767.313
768.944
769.972
770.513
771.137
772.668
682.432
682.652
683.332
684.336
685.339
686.307
687.304
688.445
689.806
691.403
693.213
695.199
697.319
699.532
701.79
704.041
706.219
708.244
710.033
711.515
712.811
714.08
715.099
622.293
622.504
623.215
624.227
625.327
626.398
627.498
628.746
630.221
631.934
633.856
635.941
638.15
640.436
642.759
645.069
647.31
649.421
651.369
653.166
654.884
656.533
658.007
561.602
561.767
562.564
563.663
564.928
566.117
567.341
568.737
570.378
572.26
574.342
576.572
578.905
581.3
583.725
586.139
588.496
590.748
592.859
594.826
596.705
598.496
600.059
500.267
500.626
501.277
502.585
504.145
505.53
506.873
508.438
510.291
512.394
514.68
517.094
519.592
522.124
524.681
527.222
529.708
532.099
534.354
536.444
538.366
540.096
541.45
437.907
437.949
438.658
440.214
442.335
444.313
446.008
447.856
449.994
452.372
454.903
457.525
460.194
462.902
465.611
468.29
470.906
473.414
475.76
477.869
479.624
480.823
481.182
374.66
373.843
373.98
375.375
378.549
381.892
384.572
387.039
389.574
392.264
395.061
397.915
400.793
403.677
406.535
409.351
412.083
414.677
417.052
419.116
420.602
421.475
418.025
311.86
282.573
226.581
204.463
228.583
264.681
324.267
426.309
536.132
554.79
560.163
627.856
700.668
737.606
737.63
647.396
510.208
614.944
883.233
295.42
248.702
196.455
188.649
214.085
250.4
307.155
389.021
470.903
473.133
477.806
555.521
648.784
702.624
707.034
594.245
427.901
513.895
814.83
295.773
222.191
186.355
183.642
210.906
246.214
286.263
333.355
369.995
358.102
361.732
439.09
555.515
647.724
664.896
537.867
339.747
395.812
734.562
284.603
215.376
184.566
181.189
207.343
232.825
244.415
251.002
252.788
230.304
240.546
311.706
433.159
551.535
597.681
473.49
257.531
273.991
643.006
267.701
216.048
186.533
181.802
199.264
203.086
184.995
161.624
127.771
88.3435
98.6544
172.297
300.14
430.204
499.388
408.226
190.662
172.108
552.076
258.671
219.12
190.051
178.202
172.804
154.996
120.975
73.0632
26.0279
6.25235
6.13786
39.47
157.065
301.753
387.946
334.291
147.915
124.616
487.122
255.564
218.736
182.664
151.444
129.091
103.272
56.7756
13.1573
-0.920161
-2.49748
-2.55956
0.06032
38.1265
172.549
282.5
266.951
132.379
135.474
471.45
235.569
197.856
152.571
114.072
86.2619
54.1956
10.56
-2.09289
-2.79048
-3.00176
-2.95105
-2.48248
2.35941
63.8275
187.48
212.677
145.045
188.167
512.999
275.576
271.189
269.986
272.18
278.596
284.419
288.631
292.06
295.183
298.285
301.451
304.649
307.841
311.001
314.103
317.116
319.976
322.568
324.64
325.783
324.625
319.583
301.719
147.765
140.686
137.764
141.302
148.802
155.158
159.41
162.864
166.332
169.881
173.541
177.256
180.94
184.534
188.004
191.31
194.378
197.088
199.236
200.506
200.487
198.506
194.571
52.9164
43.387
34.205
34.569
40.5111
45.7839
48.6797
50.1772
51.8079
53.9641
56.633
59.6029
62.6794
65.7514
68.7574
71.6545
74.3957
76.9145
79.1108
80.803
81.7142
81.1661
78.8145
-2.38355
-2.61312
-2.76808
-1.87931
1.23066
1.87025
1.39799
0.92745
0.690299
0.745056
1.19778
1.93566
2.82242
3.78126
4.76652
5.74949
6.71047
7.62881
8.48054
9.24389
9.87721
9.96815
9.28353
-3.15956
-3.17656
-3.20608
-3.26679
-3.2409
-3.24672
-3.24448
-3.24172
-3.24108
-3.24443
-3.25142
-3.2602
-3.26973
-3.27961
-3.28975
-3.30029
-3.3114
-3.32329
-3.33623
-3.35067
-3.36663
-3.38202
-3.39503
-3.27619
-3.28608
-3.32593
-3.37142
-3.3794
-3.37642
-3.36994
-3.36658
-3.36725
-3.37212
-3.37947
-3.38789
-3.39681
-3.40602
-3.41547
-3.42527
-3.43561
-3.44669
-3.45864
-3.47156
-3.48556
-3.50046
-3.5152
-3.43522
-3.44425
-3.45784
-3.46973
-3.47771
-3.48374
-3.48826
-3.49203
-3.49661
-3.50249
-3.50941
-3.51706
-3.5253
-3.53404
-3.5432
-3.5528
-3.56295
-3.5738
-3.58549
-3.59819
-3.61209
-3.62701
-3.64235
-3.57295
-3.57622
-3.58222
-3.59084
-3.59907
-3.60602
-3.61205
-3.61779
-3.62371
-3.63016
-3.63725
-3.64492
-3.65311
-3.66176
-3.67086
-3.68046
-3.69066
-3.70163
-3.71344
-3.72652
-3.7415
-3.75824
-3.77629
-3.71011
-3.71209
-3.71572
-3.72053
-3.72575
-3.73111
-3.73674
-3.74273
-3.74912
-3.756
-3.7634
-3.77134
-3.77978
-3.7887
-3.79811
-3.80806
-3.81864
-3.82994
-3.84203
-3.85582
-3.87209
-3.89022
-3.90963
-3.83693
-3.83853
-3.84146
-3.84526
-3.84977
-3.85484
-3.86041
-3.86649
-3.8731
-3.88024
-3.88795
-3.89622
-3.90505
-3.91442
-3.92434
-3.93482
-3.94594
-3.95769
-3.97021
-3.98437
-4.0006
-4.01807
-4.03626
-3.96125
-3.96243
-3.96492
-3.96823
-3.97224
-3.97696
-3.98235
-3.98839
-3.99508
-4.0024
-4.01037
-4.01897
-4.0282
-4.03807
-4.04856
-4.05967
-4.07144
-4.08382
-4.09698
-4.11102
-4.12591
-4.14169
-4.15777
-4.08173
-4.08277
-4.08505
-4.08811
-4.09193
-4.09652
-4.10185
-4.10791
-4.11469
-4.12217
-4.13036
-4.13925
-4.14884
-4.15913
-4.17011
-4.18178
-4.19414
-4.20717
-4.22086
-4.23496
-4.2492
-4.26391
-4.27879
-4.19901
-4.20001
-4.20217
-4.20511
-4.20884
-4.21337
-4.2187
-4.22481
-4.23168
-4.23931
-4.24769
-4.25682
-4.26669
-4.27731
-4.28866
-4.30074
-4.31352
-4.32698
-4.34107
-4.35563
-4.37037
-4.38502
-4.39991
-4.31314
-4.31413
-4.3162
-4.31909
-4.32279
-4.32734
-4.33271
-4.33889
-4.34588
-4.35366
-4.36224
-4.37161
-4.38175
-4.39266
-4.40432
-4.41673
-4.42986
-4.44366
-4.45809
-4.47303
-4.48836
-4.50382
-4.51959
-4.42412
-4.4251
-4.42712
-4.42998
-4.4337
-4.43829
-4.44374
-4.45003
-4.45717
-4.46515
-4.47395
-4.48358
-4.49402
-4.50525
-4.51727
-4.53005
-4.54356
-4.55778
-4.57265
-4.5881
-4.60405
-4.62041
-4.6371
-4.53187
-4.53284
-4.53483
-4.5377
-4.54147
-4.54613
-4.55169
-4.55814
-4.56546
-4.57366
-4.58273
-4.59266
-4.60344
-4.61505
-4.62748
-4.64071
-4.6547
-4.66944
-4.68487
-4.70096
-4.71763
-4.73483
-4.7525
-4.63626
-4.63722
-4.63921
-4.64211
-4.64595
-4.65073
-4.65643
-4.66306
-4.67061
-4.67907
-4.68844
-4.69871
-4.70987
-4.72191
-4.73481
-4.74855
-4.76311
-4.77845
-4.79455
-4.81136
-4.82884
-4.84694
-4.86562
-4.73716
-4.73812
-4.74012
-4.74309
-4.74702
-4.75193
-4.75781
-4.76465
-4.77245
-4.7812
-4.7909
-4.80155
-4.81313
-4.82563
-4.83905
-4.85336
-4.86854
-4.88456
-4.90139
-4.91901
-4.93738
-4.95645
-4.97618
-4.83445
-4.83542
-4.83745
-4.84049
-4.84454
-4.8496
-4.85567
-4.86273
-4.8708
-4.87987
-4.88993
-4.90098
-4.91301
-4.92602
-4.93999
-4.95491
-4.97075
-4.98751
-5.00514
-5.02363
-5.04294
-5.06304
-5.08389
-4.92803
-4.92901
-4.93109
-4.93422
-4.93839
-4.94361
-4.94988
-4.95719
-4.96554
-4.97493
-4.98536
-4.99683
-5.00933
-5.02286
-5.03741
-5.05297
-5.06952
-5.08704
-5.10552
-5.12493
-5.14525
-5.16643
-5.18846
-5.01779
-5.0188
-5.02094
-5.02416
-5.02846
-5.03385
-5.04032
-5.04787
-5.05651
-5.06624
-5.07704
-5.08894
-5.10192
-5.11598
-5.13112
-5.14733
-5.16461
-5.18293
-5.20228
-5.22265
-5.244
-5.26632
-5.28957
-5.10364
-5.10468
-5.10688
-5.1102
-5.11463
-5.12018
-5.12685
-5.13465
-5.14357
-5.15362
-5.16481
-5.17712
-5.19058
-5.20517
-5.2209
-5.23777
-5.25578
-5.2749
-5.29514
-5.31648
-5.33889
-5.36237
-5.38688
-5.18545
-5.18652
-5.18879
-5.1922
-5.19676
-5.20247
-5.20933
-5.21736
-5.22656
-5.23692
-5.24846
-5.26119
-5.27511
-5.29022
-5.30653
-5.32404
-5.34276
-5.36269
-5.3838
-5.40611
-5.42959
-5.45422
-5.48001
-5.26308
-5.26419
-5.26652
-5.27002
-5.27469
-5.28055
-5.2876
-5.29584
-5.30529
-5.31595
-5.32783
-5.34094
-5.35529
-5.37089
-5.38775
-5.40588
-5.42529
-5.44597
-5.46794
-5.49119
-5.51571
-5.5415
-5.56854
-5.33641
-5.33756
-5.33994
-5.34352
-5.3483
-5.35428
-5.36149
-5.36993
-5.3796
-5.39052
-5.4027
-5.41615
-5.4309
-5.44694
-5.46431
-5.48301
-5.50305
-5.52445
-5.54722
-5.57137
-5.59688
-5.62376
-5.65202
-5.40531
-5.40649
-5.40892
-5.41256
-5.41742
-5.42352
-5.43086
-5.43945
-5.44931
-5.46045
-5.47288
-5.48663
-5.50171
-5.51814
-5.53595
-5.55514
-5.57575
-5.5978
-5.62129
-5.64625
-5.67268
-5.70058
-5.72997
-5.46968
-5.47089
-5.47335
-5.47704
-5.48196
-5.48814
-5.49557
-5.50428
-5.51428
-5.52558
-5.5382
-5.55218
-5.56752
-5.58426
-5.60242
-5.62202
-5.6431
-5.66569
-5.6898
-5.71545
-5.74268
-5.77148
-5.80188
-5.52943
-5.53066
-5.53314
-5.53685
-5.54181
-5.54803
-5.55552
-5.56429
-5.57437
-5.58577
-5.59851
-5.61263
-5.62815
-5.64509
-5.6635
-5.6834
-5.70483
-5.72782
-5.75241
-5.77862
-5.80648
-5.83602
-5.86726
-5.58453
-5.58576
-5.58824
-5.59195
-5.59691
-5.60313
-5.61062
-5.6194
-5.62949
-5.64091
-5.65369
-5.66786
-5.68344
-5.70048
-5.71901
-5.73907
-5.7607
-5.78394
-5.80883
-5.83541
-5.86371
-5.89376
-5.92562
-5.63496
-5.63617
-5.63863
-5.64232
-5.64724
-5.65341
-5.66085
-5.66957
-5.67959
-5.69095
-5.70366
-5.71777
-5.7333
-5.7503
-5.7688
-5.78886
-5.81052
-5.83381
-5.8588
-5.88552
-5.91402
-5.94434
-5.97653
-5.68071
-5.68189
-5.68432
-5.68795
-5.69279
-5.69887
-5.70619
-5.71477
-5.72465
-5.73584
-5.74838
-5.7623
-5.77765
-5.79446
-5.81278
-5.83266
-5.85414
-5.87727
-5.90212
-5.92873
-5.95714
-5.98741
-6.01961
-5.72186
-5.72298
-5.72537
-5.72889
-5.73361
-5.73953
-5.74667
-5.75504
-5.76467
-5.7756
-5.78785
-5.80146
-5.81647
-5.83293
-5.85088
-5.87037
-5.89146
-5.91419
-5.93863
-5.96483
-5.99284
-6.02272
-6.05455
-5.7585
-5.75956
-5.76186
-5.76526
-5.7698
-5.7755
-5.78238
-5.79045
-5.79974
-5.81029
-5.82212
-5.83528
-5.8498
-5.86573
-5.88311
-5.90201
-5.92246
-5.94453
-5.96828
-5.99375
-6.02102
-6.05013
-6.08119
-5.79079
-5.79176
-5.79396
-5.79719
-5.80149
-5.80693
-5.81347
-5.82115
-5.83001
-5.84007
-5.85135
-5.86391
-5.87777
-5.89299
-5.90961
-5.92768
-5.94726
-5.96839
-5.99114
-6.01557
-6.04173
-6.0697
-6.09957
-5.81888
-5.81975
-5.8218
-5.82484
-5.82887
-5.83397
-5.84012
-5.84734
-5.85566
-5.86512
-5.87573
-5.88754
-5.90059
-5.91492
-5.93057
-5.9476
-5.96605
-5.98598
-6.00744
-6.0305
-6.0552
-6.08164
-6.10989
-5.84291
-5.84371
-5.84558
-5.84841
-5.85214
-5.85686
-5.86255
-5.86923
-5.87693
-5.88568
-5.8955
-5.90643
-5.91851
-5.93177
-5.94627
-5.96204
-5.97913
-5.99759
-6.01748
-6.03885
-6.06176
-6.08629
-6.11251
-5.86314
-5.86392
-5.86559
-5.8682
-5.87159
-5.87588
-5.88106
-5.88713
-5.89412
-5.90206
-5.91098
-5.9209
-5.93186
-5.94389
-5.95704
-5.97135
-5.98686
-6.00361
-6.02165
-6.04104
-6.06184
-6.0841
-6.1079
-5.87976
-5.8806
-5.88206
-5.88443
-5.88746
-5.89129
-5.89589
-5.90128
-5.90749
-5.91453
-5.92242
-5.93121
-5.94091
-5.95156
-5.9632
-5.97585
-5.98957
-6.00438
-6.02034
-6.03749
-6.05587
-6.07554
-6.09657
-5.89334
-5.89435
-5.8956
-5.89771
-5.90036
-5.90368
-5.90767
-5.91233
-5.91768
-5.92375
-5.93054
-5.9381
-5.94643
-5.95558
-5.96556
-5.97642
-5.98818
-6.00088
-6.01456
-6.02925
-6.045
-6.06185
-6.07987
-5.90609
-5.90731
-5.90835
-5.91017
-5.91245
-5.91528
-5.91866
-5.92258
-5.92707
-5.93213
-5.9378
-5.94408
-5.951
-5.95859
-5.96687
-5.97587
-5.98561
-5.99613
-6.00745
-6.0196
-6.03263
-6.04659
-6.06152
-5.91616
-5.91738
-5.91832
-5.91992
-5.92186
-5.9242
-5.92694
-5.93008
-5.93365
-5.93765
-5.94211
-5.94704
-5.95246
-5.95839
-5.96485
-5.97187
-5.97947
-5.98766
-5.99648
-6.00595
-6.01611
-6.02698
-6.0386
-5.9054
-5.90768
-5.90866
-5.90998
-5.91143
-5.91307
-5.91493
-5.91703
-5.91937
-5.92198
-5.92486
-5.92803
-5.9315
-5.93528
-5.93939
-5.94385
-5.94867
-5.95386
-5.95945
-5.96545
-5.97188
-5.97875
-5.98608
236.181
286.457
276.179
230.86
175.38
160.656
142.906
114.569
66.6886
45.3767
33.6009
24.5892
4.70662
-2.574
-3.34212
-3.3543
-3.41364
-3.41284
-3.48533
-3.48637
-3.54301
-3.56491
-3.59592
-3.62428
-3.67689
-3.70924
-3.7414
-3.78791
-3.81615
-3.85214
-3.88429
-3.93735
-3.95035
-3.98859
-4.02364
-4.07668
-4.0741
-4.11684
-4.16071
-4.21668
-4.19247
-4.24122
-4.29339
-4.35403
-4.31262
-4.36559
-4.42435
-4.4895
-4.43434
-4.49107
-4.5547
-4.62385
-4.55561
-4.61641
-4.68419
-4.75738
-4.67525
-4.74047
-4.81252
-4.89019
-4.79301
-4.86275
-4.93949
-5.02227
-4.90858
-4.98298
-5.06492
-5.15354
-5.02169
-5.10098
-5.18864
-5.28386
-5.13208
-5.21652
-5.31043
-5.41301
-5.23945
-5.32935
-5.43001
-5.54071
-5.34349
-5.43911
-5.547
-5.66658
-5.44381
-5.54539
-5.66094
-5.79012
-5.53999
-5.64769
-5.77127
-5.91074
-5.63156
-5.74546
-5.87733
-6.02765
-5.71799
-5.83803
-5.97832
-6.13994
-5.79872
-5.92469
-6.07331
-6.24646
-5.87313
-6.00462
-6.16126
-6.34588
-5.94062
-6.07698
-6.24101
-6.43662
-6.00057
-6.1409
-6.3113
-6.51695
-6.05242
-6.19552
-6.37087
-6.58497
-6.09565
-6.24003
-6.41846
-6.63872
-6.12985
-6.27376
-6.45295
-6.67635
-6.15479
-6.29626
-6.4735
-6.69633
-6.17045
-6.30733
-6.47963
-6.6976
-6.17701
-6.30709
-6.47127
-6.67972
-6.17485
-6.29592
-6.44883
-6.64301
-6.16452
-6.27455
-6.41321
-6.58863
-6.14663
-6.2438
-6.36566
-6.51851
-6.12278
-6.20577
-6.30906
-6.43688
-6.09707
-6.16544
-6.24967
-6.35205
-6.06622
-6.11905
-6.18333
-6.25976
-6.00348
-6.03619
-6.07507
-6.11962
176.284
136.169
97.9862
63.7693
38.3233
15.8193
-2.77606
-3.25863
-3.24411
-3.20965
-3.12913
-2.97578
-2.39714
5.74791
66.5555
137.229
184.607
335.186
616.875
84.189
55.6537
36.3758
10.4775
-3.33939
-3.65208
-3.42693
-3.4788
-3.45715
-3.41645
-3.34817
-3.22587
-3.05758
-2.6393
4.52785
49.7774
174.699
418.908
684.487
13.8546
-0.0230248
-3.36429
-3.61086
-3.62944
-3.71022
-3.66173
-3.63326
-3.63399
-3.62842
-3.56779
-3.42713
-3.21329
-2.89204
-2.11665
5.34851
88.9293
362.954
629.757
-3.36616
-3.38962
-3.51156
-3.6762
-3.78244
-3.83243
-3.81503
-3.7879
-3.79924
-3.81983
-3.76528
-3.6039
-3.34117
-3.01922
-2.5161
-0.731871
18.9708
221.638
487.163
-3.51168
-3.56185
-3.66709
-3.80951
-3.924
-3.96229
-3.95137
-3.93335
-3.95193
-3.99271
-3.94787
-3.77391
-3.4929
-3.11219
-2.60204
-1.70697
1.51164
94.1777
333.908
-3.67328
-3.74081
-3.8372
-3.9481
-4.0383
-4.0732
-4.07564
-4.07547
-4.10324
-4.14899
-4.11554
-3.9561
-3.6882
-3.24899
-2.49455
-1.50999
-1.39066
37.8256
224.214
-3.84414
-3.909
-3.98398
-4.06731
-4.13676
-4.17841
-4.19972
-4.2152
-4.24757
-4.29366
-4.27712
-4.1572
-3.96534
-3.51049
-2.20688
-0.379337
-1.46805
36.1707
160.172
-3.99641
-4.05432
-4.11736
-4.1863
-4.24791
-4.29473
-4.32753
-4.35322
-4.38898
-4.43638
-4.44373
-4.38605
-4.38051
-4.22392
-2.59331
0.25091
-0.212577
46.9783
119.584
-4.13666
-4.19352
-4.25334
-4.31523
-4.37276
-4.42118
-4.46025
-4.4935
-4.53325
-4.58615
-4.62997
-4.68605
-5.06169
-6.00977
-6.31067
-11.1651
7.86125
52.413
93.4579
-4.27645
-4.33272
-4.39101
-4.44968
-4.50532
-4.55528
-4.59889
-4.63813
-4.68182
-4.74203
-4.82506
-4.9914
-5.636
-7.41226
-9.26874
-5.99963
26.6388
53.5531
75.7518
-4.41483
-4.47193
-4.53038
-4.58844
-4.64415
-4.69604
-4.74361
-4.78882
-4.83761
-4.90265
-5.01445
-5.25617
-5.87816
-7.25175
-8.46203
-4.83629
18.2916
47.2748
61.849
-4.55257
-4.61161
-4.67158
-4.7309
-4.78823
-4.84292
-4.89491
-4.94605
-5.00154
-5.07157
-5.19312
-5.46007
-5.97923
-6.90975
-7.65873
-7.8039
-4.58628
38.305
49.7652
-4.69009
-4.75198
-4.81461
-4.87659
-4.93695
-4.99544
-5.05251
-5.11013
-5.17331
-5.25087
-5.37167
-5.62338
-6.05933
-6.72874
-7.03846
-6.5922
-9.23287
31.9173
39.9958
-4.82753
-4.89311
-4.95944
-5.02533
-5.09
-5.1534
-5.21632
-5.28082
-5.35227
-5.43806
-5.55941
-5.77165
-6.12656
-6.57075
-6.69301
-6.39234
-7.57019
24.2243
32.9566
-4.96497
-5.03506
-5.10613
-5.17706
-5.24719
-5.31652
-5.38594
-5.45744
-5.53563
-5.62917
-5.74963
-5.92593
-6.18143
-6.4518
-6.51495
-6.20733
-5.74955
9.67659
27.4378
-5.10244
-5.1779
-5.25469
-5.33178
-5.40844
-5.48463
-5.56116
-5.63973
-5.72423
-5.822
-5.93841
-6.0844
-6.25608
-6.42065
-6.44013
-6.19264
-5.55939
-4.36543
23.4767
-5.23992
-5.32162
-5.40518
-5.48952
-5.57382
-5.65784
-5.74203
-5.82766
-5.91765
-6.01738
-6.12738
-6.25095
-6.37106
-6.4701
-6.472
-6.35064
-6.2718
-6.33049
21.7045
-5.3773
-5.4662
-5.55761
-5.65041
-5.74356
-5.83648
-5.92906
-6.02196
-6.11695
-6.21756
-6.32153
-6.42728
-6.51656
-6.57478
-6.56666
-6.50019
-6.51345
-6.74304
19.8753
-5.51442
-5.61154
-5.71201
-5.81461
-5.91803
-6.02126
-6.12326
-6.22416
-6.32437
-6.42556
-6.52442
-6.61523
-6.68268
-6.71726
-6.70677
-6.66746
-6.64916
-6.77373
17.748
-5.65105
-5.75749
-5.86837
-5.98232
-6.09772
-6.2132
-6.3261
-6.43641
-6.54289
-6.64522
-6.73964
-6.8179
-6.86737
-6.8869
-6.87529
-6.864
-6.82263
-6.91876
16.0106
-5.78684
-5.9038
-6.02661
-6.15376
-6.28316
-6.4122
-6.53946
-6.6615
-6.77629
-6.88134
-6.97217
-7.03966
-7.0731
-7.0818
-7.06517
-7.07578
-7.00147
-7.12791
15.414
-5.92134
-6.05012
-6.18659
-6.32915
-6.47537
-6.62212
-6.7661
-6.90305
-7.02932
-7.13984
-7.22847
-7.28638
-7.3045
-7.30247
-7.2808
-7.28836
-7.183
-7.37973
15.9065
-6.05394
-6.19592
-6.34799
-6.50857
-6.67497
-6.8434
-7.00903
-7.16567
-7.30803
-7.42829
-7.51683
-7.56512
-7.56628
-7.54562
-7.51441
-7.49488
-7.37343
-7.56908
16.9187
-6.18384
-6.34045
-6.51024
-6.69189
-6.8826
-7.07803
-7.27153
-7.45511
-7.62058
-7.757
-7.84851
-7.88491
-7.86333
-7.80966
-7.75047
-7.69606
-7.54615
-7.74514
17.9863
-6.31001
-6.48269
-6.67248
-6.8787
-7.09876
-7.32803
-7.55841
-7.7791
-7.97817
-8.14124
-8.2405
-8.26003
-8.20319
-8.09942
-7.98362
-7.88923
-7.68467
-7.92831
18.6955
-6.43114
-6.62123
-6.83339
-7.06811
-7.32357
-7.59529
-7.8746
-8.14522
-8.39688
-8.605
-8.7202
-8.71556
-8.60236
-8.42565
-8.22781
-8.08922
-7.80844
-8.21817
18.7636
-6.54561
-6.75422
-6.99109
-7.2585
-7.55665
-7.88175
-8.2281
-8.57207
-8.90399
-9.1884
-9.33154
-9.28672
-9.08248
-8.8009
-8.49755
-8.31457
-7.92489
-8.5216
17.8634
-6.65141
-6.87926
-7.14283
-7.44715
-7.79653
-8.18871
-8.62977
-9.08695
-9.5464
-9.96288
-10.1602
-10.0579
-9.69738
-9.24851
-8.79992
-8.5641
-8.01738
-8.78877
15.8618
-6.74617
-6.9933
-7.28483
-7.62972
-8.03904
-8.51373
-9.09102
-9.72566
-10.3799
-11.0282
-11.2779
-11.0779
-10.5
-9.80354
-9.14294
-8.815
-8.08086
-8.86588
11.0567
-6.82717
-7.09258
-7.41206
-7.79981
-8.27591
-8.85085
-9.61366
-10.451
-11.3538
-12.3814
-12.7532
-12.3435
-11.4969
-10.5001
-9.55646
-9.042
-8.20348
-9.50965
11.1873
-6.89144
-7.17269
-7.51811
-7.9479
-8.49506
-9.1946
-10.1644
-11.1399
-12.5379
-14.7595
-15.6142
-14.2367
-12.687
-11.3633
-10.0961
-9.29581
-8.24585
-8.67719
31.7796
-6.93595
-7.22886
-7.5952
-8.06079
-8.6793
-9.51399
-10.6587
-11.9451
-14.9032
-19.3058
-19.9462
-17.0158
-14.0172
-12.3853
-10.8662
-9.72464
-9.09172
-15.1895
-8.81207
-6.95799
-7.25653
-7.63547
-8.12458
-8.80226
-9.7151
-11.0188
-13.328
-19.4258
-22.6111
-22.5492
-20.0535
-15.6323
-13.5113
-11.847
-10.7695
-10.9469
-15.6374
-11.6075
-6.95552
-7.25214
-7.63278
-8.1294
-8.83672
-9.7446
-11.318
-16.2807
-22.777
-24.119
-24.0741
-22.5386
-17.8215
-14.6805
-12.8361
-11.5532
-11.1479
-13.958
-11.6338
-6.92736
-7.21346
-7.58337
-8.07082
-8.77615
-9.64056
-11.2303
-20.2637
-24.0629
-25.1181
-25.3812
-24.1909
-19.7364
-15.862
-13.9551
-12.3628
-12.0839
-11.8069
-9.90465
-6.87351
-7.13979
-7.48536
-7.94651
-8.61902
-9.43759
-11.1172
-22.0714
-24.6969
-26.0274
-26.4755
-25.1718
-20.9897
-16.8111
-15.0377
-14.2388
-10.7177
1.06035
-6.25244
-6.79534
-7.03246
-7.33922
-7.75253
-8.35462
-9.105
-10.9834
-22.3338
-24.9316
-26.6888
-27.5228
-26.1583
-21.9952
-17.6006
-15.6522
-15.7454
-8.55636
-7.05064
-6.43469
-6.69579
-6.89537
-7.14866
-7.47677
-7.95854
-8.64353
-10.4859
-21.1129
-24.6585
-27.312
-29.0285
-27.8578
-23.4113
-18.4441
-15.6077
-11.6439
-5.75319
-6.35046
-6.20846
-6.58135
-6.73805
-6.92541
-7.15231
-7.458
-7.93579
-9.36719
-17.4253
-24.78
-28.0815
-32.0487
-31.2352
-26.1999
-19.2425
-13.2834
-5.97831
-5.55528
-6.05627
-6.03964
-6.46379
-6.57807
-6.70223
-6.82272
-6.9271
-7.00141
-7.46385
-13.0121
-25.0017
-29.2756
-37.829
-39.7653
-35.1684
-17.6097
-5.80143
-3.89976
-5.82358
-5.99778
-5.97122
-6.33978
-6.41581
-6.48645
-6.52607
-6.48186
-6.24086
-5.62806
-5.67384
-22.741
-44.1307
-55.0486
-71.4392
-60.8605
-15.0904
-5.18078
-5.61517
-5.7459
-5.86819
-5.90373
-6.16318
-6.19972
-6.22321
-6.21384
-6.14349
-5.98949
-6.02471
-7.83684
-34.325
-98.9108
-106.356
-149.705
-105.504
-24.0455
-7.47271
-5.94345
-5.81169
-5.80199
-5.84139
)
;

boundaryField
{
    leftWall
    {
        type            calculated;
        value           nonuniform List<scalar> 
50
(
801.323
742.094
682.432
622.293
561.602
500.267
437.907
374.66
275.576
147.765
52.9164
-2.38355
-3.15956
-3.27619
-3.43522
-3.57295
-3.71011
-3.83693
-3.96125
-4.08173
-4.19901
-4.31314
-4.42412
-4.53187
-4.63626
-4.73716
-4.83445
-4.92803
-5.01779
-5.10364
-5.18545
-5.26308
-5.33641
-5.40531
-5.46968
-5.52943
-5.58453
-5.63496
-5.68071
-5.72186
-5.7585
-5.79079
-5.81888
-5.84291
-5.86314
-5.87976
-5.89334
-5.90609
-5.91616
-5.9054
)
;
    }
    rightWall
    {
        type            calculated;
        value           nonuniform List<scalar> 
50
(
883.233
814.83
734.562
643.006
552.076
487.122
471.45
512.999
616.875
684.487
629.757
487.163
333.908
224.214
160.172
119.584
93.4579
75.7518
61.849
49.7652
39.9958
32.9566
27.4378
23.4767
21.7045
19.8753
17.748
16.0106
15.414
15.9065
16.9187
17.9863
18.6955
18.7636
17.8634
15.8618
11.0567
11.1873
31.7796
-8.81207
-11.6075
-11.6338
-9.90465
-6.25244
-6.43469
-6.20846
-6.03964
-5.97122
-5.90373
-5.84139
)
;
    }
    lowerWall
    {
        type            calculated;
        value           nonuniform List<scalar> 
62
(
830.752
830.994
831.63
832.683
833.583
834.45
835.354
836.401
837.664
839.164
840.89
842.803
844.869
847.049
849.298
851.554
853.721
855.666
857.229
858.274
858.972
859.754
860.809
831.379
772.668
715.099
658.007
600.059
541.45
481.182
418.025
298.778
349.054
338.769
293.443
311.86
295.42
295.773
284.603
267.701
258.671
255.564
235.569
320.446
291.158
235.164
212.399
237.889
274.809
335.744
440.263
554.486
578.712
587.027
652.683
720.242
755.839
758.183
673.226
536.038
640.774
909.06
)
;
    }
    atmosphere
    {
        type            calculated;
        value           nonuniform List<scalar> 
46
(
-5.88123
-5.88902
-5.8886
-5.88951
-5.8905
-5.89161
-5.89283
-5.89419
-5.89569
-5.89735
-5.89916
-5.90115
-5.90331
-5.90565
-5.90819
-5.91093
-5.91388
-5.91706
-5.92048
-5.92414
-5.92805
-5.93222
-5.93664
-5.94713
-5.96627
-5.9882
-6.01194
-6.03291
-6.0467
-6.04705
-6.0204
-5.94667
-5.82214
-5.73857
-5.75906
-59.6476
-176.404
-178.45
-230.134
-159.222
-24.1841
-5.7331
-5.74483
-5.74373
-5.75024
-5.80158
)
;
    }
    defaultFaces
    {
        type            empty;
    }
}


// ************************************************************************* //
