/*--------------------------------*- C++ -*----------------------------------*\
| =========                 |                                                 |
| \\      /  F ield         | OpenFOAM: The Open Source CFD Toolbox           |
|  \\    /   O peration     | Version:  2206                                  |
|   \\  /    A nd           | Website:  www.openfoam.com                      |
|    \\/     M anipulation  |                                                 |
\*---------------------------------------------------------------------------*/
FoamFile
{
    version     2.0;
    format      ascii;
    arch        "LSB;label=32;scalar=64";
    class       surfaceScalarField;
    location    "0.15";
    object      alphaPhi0.water;
}
// * * * * * * * * * * * * * * * * * * * * * * * * * * * * * * * * * * * * * //

dimensions      [0 3 -1 0 0 0 0];

oriented        oriented;

internalField   nonuniform List<scalar> 
4432
(
1.33512e-06
-1.33512e-06
3.05136e-06
-1.71623e-06
4.66885e-06
-1.61747e-06
6.1994e-06
-1.53055e-06
7.67924e-06
-1.47984e-06
9.11013e-06
-1.4309e-06
1.0479e-05
-1.36888e-06
1.17688e-05
-1.28975e-06
1.29596e-05
-1.19086e-06
1.40283e-05
-1.06862e-06
1.49465e-05
-9.18164e-07
1.5679e-05
-7.32533e-07
1.61787e-05
-4.99664e-07
1.63762e-05
-1.97544e-07
1.61805e-05
1.95655e-07
1.54865e-05
6.94031e-07
1.42624e-05
1.22412e-06
1.2526e-05
1.73639e-06
1.03454e-05
2.18061e-06
7.84874e-06
2.49666e-06
5.1963e-06
2.65246e-06
2.54891e-06
2.64739e-06
2.5489e-06
1.34589e-06
-2.68099e-06
3.07635e-06
-3.44668e-06
4.71122e-06
-3.25234e-06
6.25888e-06
-3.07821e-06
7.75571e-06
-2.97668e-06
9.20492e-06
-2.88011e-06
1.05943e-05
-2.75824e-06
1.19073e-05
-2.60273e-06
1.31248e-05
-2.40841e-06
1.42246e-05
-2.16836e-06
1.518e-05
-1.87356e-06
1.59605e-05
-1.51306e-06
1.6536e-05
-1.07518e-06
1.68908e-05
-5.52372e-07
1.70043e-05
8.21707e-08
1.6881e-05
8.17343e-07
1.63991e-05
1.70599e-06
1.54099e-05
2.72567e-06
1.37634e-05
3.82714e-06
1.13438e-05
4.91629e-06
8.13398e-06
5.86227e-06
4.25591e-06
6.52545e-06
6.80482e-06
1.3526e-06
-4.03359e-06
3.10147e-06
-5.19557e-06
4.7566e-06
-4.90748e-06
6.32396e-06
-4.64559e-06
7.84158e-06
-4.4943e-06
9.31466e-06
-4.35319e-06
1.07323e-05
-4.17592e-06
1.20792e-05
-3.94958e-06
1.33374e-05
-3.66664e-06
1.44862e-05
-3.31716e-06
1.55008e-05
-2.88821e-06
1.6352e-05
-2.36432e-06
1.70048e-05
-1.7279e-06
1.74123e-05
-9.59844e-07
1.75346e-05
-4.01359e-08
1.73115e-05
1.04041e-06
1.67093e-05
2.30827e-06
1.56613e-05
3.77361e-06
1.40599e-05
5.42862e-06
1.17572e-05
7.21896e-06
8.61547e-06
9.00404e-06
4.60849e-06
1.05324e-05
1.14133e-05
1.36182e-06
-5.39541e-06
3.13883e-06
-6.9726e-06
4.82415e-06
-6.59283e-06
6.42032e-06
-6.24178e-06
7.96834e-06
-6.04234e-06
9.47639e-06
-5.86126e-06
1.09355e-05
-5.63507e-06
1.23319e-05
-5.34595e-06
1.36494e-05
-4.98422e-06
1.48694e-05
-4.53716e-06
1.59691e-05
-3.98799e-06
1.6921e-05
-3.31619e-06
1.76907e-05
-2.49754e-06
1.82354e-05
-1.50451e-06
1.85008e-05
-3.0551e-07
1.84133e-05
1.12793e-06
1.78935e-05
2.82804e-06
1.6851e-05
4.81608e-06
1.51799e-05
7.09974e-06
1.27497e-05
9.64912e-06
9.41162e-06
1.23421e-05
5.07197e-06
1.48721e-05
1.64853e-05
1.37328e-06
-6.76872e-06
3.18706e-06
-8.78643e-06
4.91177e-06
-8.31755e-06
6.54501e-06
-7.87503e-06
8.13198e-06
-7.62931e-06
9.68486e-06
-7.41415e-06
1.11971e-05
-7.14738e-06
1.2657e-05
-6.80583e-06
1.40506e-05
-6.3779e-06
1.5362e-05
-5.84856e-06
1.65715e-05
-5.19749e-06
1.76547e-05
-4.39933e-06
1.85804e-05
-3.42326e-06
1.93084e-05
-2.23245e-06
1.97856e-05
-7.82765e-07
1.99398e-05
9.73722e-07
1.96733e-05
3.09458e-06
1.88576e-05
5.63177e-06
1.73269e-05
8.63048e-06
1.48812e-05
1.20948e-05
1.12965e-05
1.59269e-05
6.33259e-06
1.9836e-05
2.28179e-05
1.38728e-06
-8.15602e-06
3.24528e-06
-1.06445e-05
5.01715e-06
-1.00894e-05
6.69488e-06
-9.55274e-06
8.32863e-06
-9.26305e-06
9.93538e-06
-9.02091e-06
1.15116e-05
-8.72357e-06
1.30477e-05
-8.342e-06
1.45328e-05
-7.86307e-06
1.59542e-05
-7.26995e-06
1.72962e-05
-6.53946e-06
1.85389e-05
-5.64202e-06
1.96565e-05
-4.5409e-06
2.06147e-05
-3.19065e-06
2.13666e-05
-1.53464e-06
2.18454e-05
4.94941e-07
2.19534e-05
2.98655e-06
2.15419e-05
6.04326e-06
2.03841e-05
9.78833e-06
1.81431e-05
1.43358e-05
1.43294e-05
1.97405e-05
8.30384e-06
2.58615e-05
3.11217e-05
1.40632e-06
-9.56236e-06
3.31253e-06
-1.25507e-05
5.1355e-06
-1.19124e-05
6.863e-06
-1.12802e-05
8.54993e-06
-1.095e-05
1.0218e-05
-1.0689e-05
1.18671e-05
-1.03726e-05
1.34904e-05
-9.9654e-06
1.50805e-05
-9.45316e-06
1.66287e-05
-8.81815e-06
1.81245e-05
-8.03525e-06
1.95542e-05
-7.07175e-06
2.08996e-05
-5.88625e-06
2.21353e-05
-4.42639e-06
2.32261e-05
-2.62551e-06
2.41176e-05
-3.96503e-07
2.47334e-05
2.37072e-06
2.49287e-05
5.848e-06
2.44574e-05
1.02596e-05
2.29547e-05
1.58385e-05
1.96517e-05
2.30435e-05
1.37155e-05
3.17977e-05
4.48373e-05
1.43328e-06
-1.09957e-05
3.38471e-06
-1.45022e-05
5.25918e-06
-1.37868e-05
7.03917e-06
-1.30602e-05
8.78277e-06
-1.26936e-05
1.05164e-05
-1.24226e-05
1.22433e-05
-1.20995e-05
1.39602e-05
-1.16823e-05
1.56634e-05
-1.11564e-05
1.73493e-05
-1.0504e-05
1.90137e-05
-9.69969e-06
2.06514e-05
-8.70947e-06
2.2255e-05
-7.48984e-06
2.38131e-05
-5.98449e-06
2.53068e-05
-4.11921e-06
2.67049e-05
-1.79461e-06
2.79635e-05
1.1122e-06
2.8979e-05
4.83244e-06
2.95075e-05
9.7311e-06
2.90855e-05
1.62606e-05
2.62929e-05
2.58362e-05
1.90113e-05
3.90793e-05
6.38486e-05
-8.57915e-11
7.60584e-12
-3.84714e-10
2.21086e-10
-3.63079e-09
2.71817e-09
-1.70172e-08
1.74726e-08
-1.01234e-07
2.41415e-08
-4.0232e-07
6.16164e-08
1.45738e-07
-9.20342e-07
2.2156e-07
-3.39661e-07
8.16872e-08
1.42054e-08
1.5954e-08
3.61827e-08
1.84923e-09
1.01271e-08
1.71683e-10
1.13092e-09
1.253e-11
9.91599e-11
7.09677e-13
6.91501e-12
2.84512e-14
3.84344e-13
6.71709e-16
1.49695e-14
3.20559e-17
2.92991e-16
1.0639e-17
7.33332e-18
1.55182e-19
-1.39973e-10
6.93934e-11
-7.5894e-10
7.2443e-10
-2.39622e-09
4.47631e-09
-1.65235e-08
3.00838e-08
-1.19404e-07
2.23677e-08
1.86428e-07
-4.41776e-07
1.13476e-06
-2.47905e-06
8.73131e-07
-6.74892e-07
4.13468e-07
2.3366e-08
8.02936e-08
1.91628e-07
1.08025e-08
6.37994e-08
1.0404e-09
8.31551e-09
7.96303e-11
7.55156e-10
4.94879e-12
5.43145e-11
2.35099e-13
3.28732e-12
7.36177e-15
1.56812e-13
2.09788e-16
4.82598e-15
1.24178e-17
1.61481e-16
2.08919e-18
-1.72452e-10
1.48511e-10
-1.08168e-10
5.59332e-10
7.51112e-11
4.30825e-09
-5.3833e-09
3.95792e-08
3.899e-07
-3.6888e-07
2.77251e-06
-3.06716e-06
4.62956e-06
-9.21432e-06
3.6873e-06
-4.09517e-06
8.99507e-07
-7.1848e-07
1.56342e-07
7.24939e-07
1.93697e-08
1.65748e-07
1.71194e-09
2.07524e-08
1.26044e-10
1.75292e-09
7.65761e-12
1.22181e-10
3.54967e-13
7.35057e-12
1.09899e-14
3.51585e-13
3.49119e-16
1.10293e-14
5.01101e-17
3.53711e-16
6.64389e-18
-8.32325e-11
1.53901e-10
-9.27504e-11
5.12044e-10
4.03187e-09
7.02761e-09
3.5208e-07
-3.02932e-07
4.03427e-06
-4.13793e-06
1.42556e-05
-2.37904e-05
2.18971e-05
-3.54399e-05
7.95452e-06
-1.7387e-05
7.83378e-07
-8.46421e-07
1.48858e-07
1.04443e-06
1.90531e-08
2.37036e-07
1.77169e-09
2.98078e-08
1.36712e-10
2.49725e-09
8.52925e-12
1.7678e-10
3.94907e-13
1.08822e-11
1.23728e-14
5.28115e-13
4.15071e-16
1.70068e-14
1.11791e-16
4.99387e-16
1.10303e-17
-1.0136e-10
2.26177e-10
2.49893e-10
3.99682e-09
8.44636e-08
-7.59257e-08
4.53514e-06
-4.80303e-06
2.33627e-05
-3.87969e-05
4.07455e-05
-6.46689e-05
2.43924e-05
-4.80328e-05
6.82536e-06
-1.77627e-05
-4.36695e-08
-2.26946e-07
4.55942e-09
7.04205e-07
4.6294e-09
1.83152e-07
6.66501e-10
2.62524e-08
6.20491e-11
2.28994e-09
4.19071e-12
1.67372e-10
1.95316e-13
1.07005e-11
6.5967e-15
5.29161e-13
2.17485e-16
1.80083e-14
8.79403e-17
4.88959e-16
1.20301e-17
-3.90766e-09
4.10656e-09
1.37114e-07
-1.3926e-07
5.54603e-06
-5.56933e-06
4.17489e-05
-5.6632e-05
6.98854e-05
-0.000102152
4.74386e-05
-7.89572e-05
1.37079e-05
-3.01605e-05
1.07905e-06
-5.30315e-06
1.82744e-07
1.76476e-08
3.40707e-08
2.15247e-07
-1.10325e-08
8.85716e-08
-8.33003e-10
8.82459e-09
-3.85908e-11
9.72301e-10
-1.88278e-12
8.66922e-11
-8.58739e-14
6.13831e-12
-2.44809e-15
3.21201e-13
-7.12118e-17
1.20645e-14
4.05738e-17
3.10457e-16
7.23163e-18
5.14093e-10
1.94846e-09
1.70248e-05
-2.02703e-05
7.40636e-05
-7.59296e-05
0.000109597
-0.000119754
9.02616e-05
-0.000109126
3.35982e-05
-5.73601e-05
3.67416e-06
-1.05263e-05
2.99887e-07
-2.26602e-06
8.24673e-08
1.83822e-08
2.37381e-08
1.83196e-08
-6.34484e-10
7.63231e-09
-3.18274e-10
2.6935e-09
-2.47805e-11
3.9896e-10
-1.70035e-12
3.99058e-11
-8.91154e-14
3.02334e-12
-3.33103e-15
1.67197e-13
-2.98695e-17
6.78827e-15
1.4581e-17
1.8495e-16
3.59584e-18
6.04393e-05
-7.15308e-05
0.000114333
-8.72206e-05
0.00013984
-0.000109296
0.000129102
-0.00012184
7.12038e-05
-9.91591e-05
7.94024e-06
-2.28595e-05
1.70158e-06
-5.1936e-06
5.78896e-08
-7.54093e-07
1.87248e-08
1.96645e-08
7.99758e-09
2.08386e-08
1.22317e-10
1.83369e-09
-1.39792e-10
1.05529e-09
-1.37988e-11
1.40221e-10
-1.07902e-12
1.591e-11
-5.95524e-14
1.28672e-12
-2.30776e-15
7.72733e-14
3.05725e-17
3.47141e-15
2.72645e-18
1.06762e-16
1.60928e-18
3.12735e-06
-1.4123e-05
7.46241e-06
-1.88372e-05
1.16128e-05
-1.79373e-05
1.55635e-05
-1.70108e-05
1.94604e-05
-1.65904e-05
2.33683e-05
-1.63305e-05
2.73026e-05
-1.60338e-05
3.12674e-05
-1.56471e-05
3.52679e-05
-1.51569e-05
3.93132e-05
-1.45495e-05
4.34167e-05
-1.38032e-05
4.75968e-05
-1.28895e-05
5.1879e-05
-1.1772e-05
5.62999e-05
-1.04054e-05
6.09136e-05
-8.73279e-06
6.58008e-05
-6.68186e-06
7.10818e-05
-4.16881e-06
7.70536e-05
-1.13928e-06
8.41174e-05
2.66721e-06
9.32091e-05
7.16894e-06
0.000106299
1.2746e-05
0.000128279
1.71001e-05
2.8426e-05
0.000163701
3.29093e-06
-1.74139e-05
7.81797e-06
-2.33643e-05
1.21638e-05
-2.22831e-05
1.63289e-05
-2.1176e-05
2.04727e-05
-2.07342e-05
2.46695e-05
-2.05273e-05
2.89445e-05
-2.03088e-05
3.3314e-05
-2.00166e-05
3.77992e-05
-1.96421e-05
4.24285e-05
-1.91788e-05
4.72393e-05
-1.8614e-05
5.22804e-05
-1.79306e-05
5.76174e-05
-1.7109e-05
6.33399e-05
-1.6128e-05
6.95736e-05
-1.49665e-05
7.64988e-05
-1.3607e-05
8.43707e-05
-1.20408e-05
9.35104e-05
-1.02789e-05
0.000104504
-8.32675e-06
0.000117988
-6.31478e-06
0.00013473
-3.99567e-06
0.000154582
-2.75217e-06
1.92261e-06
0.000181085
3.4672e-06
-2.08811e-05
8.11879e-06
-2.80158e-05
1.25722e-05
-2.67364e-05
1.68816e-05
-2.54854e-05
2.12095e-05
-2.50621e-05
2.56248e-05
-2.49425e-05
3.01543e-05
-2.48383e-05
3.48214e-05
-2.46839e-05
3.96562e-05
-2.4477e-05
4.46961e-05
-2.42187e-05
4.9987e-05
-2.39049e-05
5.55848e-05
-2.35285e-05
6.15588e-05
-2.3083e-05
6.7994e-05
-2.25631e-05
7.49949e-05
-2.19674e-05
8.26878e-05
-2.13e-05
9.12202e-05
-2.05732e-05
0.000100756
-1.98144e-05
0.00011149
-1.90612e-05
0.000123579
-1.84032e-05
0.000137454
-1.78711e-05
0.000152663
-1.79609e-05
-1.79417e-05
0.000172527
3.64234e-06
-2.45235e-05
8.31965e-06
-3.26931e-05
1.2775e-05
-3.11918e-05
1.71398e-05
-2.98502e-05
2.15658e-05
-2.94881e-05
2.61032e-05
-2.94799e-05
3.07744e-05
-2.95095e-05
3.56054e-05
-2.95149e-05
4.06297e-05
-2.95013e-05
4.58867e-05
-2.94757e-05
5.14216e-05
-2.94398e-05
5.72868e-05
-2.93937e-05
6.35426e-05
-2.93388e-05
7.02582e-05
-2.92788e-05
7.7512e-05
-2.92212e-05
8.53909e-05
-2.91788e-05
9.39887e-05
-2.91709e-05
0.000103402
-2.92278e-05
0.000113727
-2.93863e-05
0.000125035
-2.9711e-05
0.000137399
-3.02349e-05
0.000150604
-3.1166e-05
-3.21641e-05
0.000164826
3.79263e-06
-2.83161e-05
8.38112e-06
-3.72817e-05
1.27286e-05
-3.55393e-05
1.70528e-05
-3.41743e-05
2.14774e-05
-3.39127e-05
2.60251e-05
-3.40276e-05
3.07111e-05
-3.41955e-05
3.5562e-05
-3.43659e-05
4.06114e-05
-3.45507e-05
4.58967e-05
-3.4761e-05
5.14587e-05
-3.50018e-05
5.73426e-05
-3.52776e-05
6.35977e-05
-3.55939e-05
7.02775e-05
-3.59586e-05
7.74389e-05
-3.63825e-05
8.51399e-05
-3.68798e-05
9.34373e-05
-3.74683e-05
0.000102382
-3.81724e-05
0.000112011
-3.90154e-05
0.000122341
-4.00406e-05
0.000133358
-4.12528e-05
0.000144972
-4.27791e-05
-4.43676e-05
0.000157175
3.89194e-06
-3.22081e-05
8.27413e-06
-4.16638e-05
1.24142e-05
-3.96793e-05
1.66057e-05
-3.83658e-05
2.0927e-05
-3.8234e-05
2.53706e-05
-3.84713e-05
2.99456e-05
-3.87705e-05
3.46783e-05
-3.90987e-05
3.96009e-05
-3.94734e-05
4.47471e-05
-3.99071e-05
5.01524e-05
-4.04071e-05
5.58548e-05
-4.098e-05
6.18948e-05
-4.16339e-05
6.83149e-05
-4.23787e-05
7.51585e-05
-4.3226e-05
8.24684e-05
-4.41897e-05
9.02848e-05
-4.52847e-05
9.86426e-05
-4.65302e-05
0.000107566
-4.79386e-05
0.00011707
-4.95447e-05
0.000127139
-5.13216e-05
0.000137748
-5.33876e-05
-5.54537e-05
0.000148834
3.91738e-06
-3.61254e-05
7.98409e-06
-4.57305e-05
1.18354e-05
-4.35306e-05
1.58119e-05
-4.23423e-05
1.99323e-05
-4.23545e-05
2.41633e-05
-4.27023e-05
2.85108e-05
-4.3118e-05
3.30008e-05
-4.35886e-05
3.76624e-05
-4.4135e-05
4.2525e-05
-4.47697e-05
4.76189e-05
-4.5501e-05
5.29765e-05
-4.63375e-05
5.86318e-05
-4.72892e-05
6.46206e-05
-4.83675e-05
7.09797e-05
-4.95851e-05
7.77459e-05
-5.09557e-05
8.49549e-05
-5.24935e-05
9.26395e-05
-5.42146e-05
0.000100828
-5.61261e-05
0.000109545
-5.82614e-05
0.00011879
-6.05665e-05
0.000128593
-6.31893e-05
-6.57753e-05
0.000138917
3.85323e-06
-3.99786e-05
7.51323e-06
-4.93903e-05
1.10162e-05
-4.70334e-05
1.47065e-05
-4.60326e-05
1.85379e-05
-4.61857e-05
2.24599e-05
-4.66241e-05
2.64788e-05
-4.71368e-05
3.0619e-05
-4.77287e-05
3.49052e-05
-4.8421e-05
3.93616e-05
-4.92259e-05
4.40136e-05
-5.01528e-05
4.88885e-05
-5.12121e-05
5.40157e-05
-5.2416e-05
5.94269e-05
-5.37782e-05
6.51561e-05
-5.53136e-05
7.12393e-05
-5.70381e-05
7.77152e-05
-5.89682e-05
8.4623e-05
-6.11208e-05
9.20037e-05
-6.35048e-05
9.98983e-05
-6.61512e-05
0.00010833
-6.89932e-05
0.000117339
-7.21913e-05
-7.52581e-05
0.000126835
3.69835e-06
-4.36766e-05
6.88622e-06
-5.25773e-05
1.00025e-05
-5.0149e-05
1.33482e-05
-4.93776e-05
1.68158e-05
-4.96526e-05
2.03496e-05
-5.01571e-05
2.39577e-05
-5.07441e-05
2.76611e-05
-5.1431e-05
3.14787e-05
-5.22374e-05
3.54286e-05
-5.31745e-05
3.95304e-05
-5.4253e-05
4.38054e-05
-5.54853e-05
4.82776e-05
-5.6886e-05
5.29739e-05
-5.84715e-05
5.79242e-05
-6.02602e-05
6.31634e-05
-6.22721e-05
6.87313e-05
-6.4529e-05
7.46748e-05
-6.70541e-05
8.10506e-05
-6.98669e-05
8.79103e-05
-7.29957e-05
9.53245e-05
-7.63732e-05
0.000103285
-8.01075e-05
-8.35387e-05
0.000111625
3.47452e-06
-4.71488e-05
6.15469e-06
-5.52526e-05
8.86551e-06
-5.28557e-05
1.18221e-05
-5.23301e-05
1.48699e-05
-5.2696e-05
1.79577e-05
-5.32403e-05
2.10953e-05
-5.38765e-05
2.42976e-05
-5.46275e-05
2.75763e-05
-5.55094e-05
3.09421e-05
-5.65328e-05
3.44063e-05
-5.77085e-05
3.7981e-05
-5.90499e-05
4.16806e-05
-6.05733e-05
4.55212e-05
-6.22964e-05
4.95209e-05
-6.42395e-05
5.37012e-05
-6.64252e-05
5.80874e-05
-6.88779e-05
6.27122e-05
-7.16279e-05
6.76184e-05
-7.4701e-05
7.28318e-05
-7.81126e-05
7.83578e-05
-8.17753e-05
8.38809e-05
-8.54151e-05
-8.78472e-05
8.8472e-05
3.20481e-06
-5.03391e-05
5.34899e-06
-5.73713e-05
7.64445e-06
-5.51287e-05
1.01795e-05
-5.48429e-05
1.27683e-05
-5.52612e-05
1.53717e-05
-5.58181e-05
1.79977e-05
-5.64746e-05
2.06533e-05
-5.7252e-05
2.33417e-05
-5.8163e-05
2.60643e-05
-5.92159e-05
2.8821e-05
-6.042e-05
3.16085e-05
-6.17854e-05
3.44264e-05
-6.3329e-05
3.72712e-05
-6.5063e-05
4.01366e-05
-6.70042e-05
4.30127e-05
-6.91682e-05
4.58858e-05
-7.15729e-05
4.87451e-05
-7.42472e-05
5.15501e-05
-7.71876e-05
5.42274e-05
-8.03523e-05
5.65981e-05
-8.35532e-05
5.7665e-05
-8.56756e-05
-8.5891e-05
5.68288e-05
2.88908e-06
-5.31436e-05
4.45324e-06
-5.88077e-05
6.32091e-06
-5.68805e-05
8.40515e-06
-5.68098e-05
1.0503e-05
-5.72351e-05
1.25878e-05
-5.77699e-05
1.46619e-05
-5.84043e-05
1.67207e-05
-5.91525e-05
1.87569e-05
-6.00237e-05
2.07597e-05
-6.10228e-05
2.27134e-05
-6.21532e-05
2.45847e-05
-6.34065e-05
2.63579e-05
-6.48073e-05
2.8009e-05
-6.63486e-05
2.95183e-05
-6.80504e-05
3.08757e-05
-6.9922e-05
3.20971e-05
-7.19994e-05
3.31652e-05
-7.42661e-05
3.37241e-05
-7.58996e-05
3.37687e-05
-7.39192e-05
3.2816e-05
-6.62735e-05
3.06271e-05
-5.79981e-05
-5.33211e-05
2.74318e-05
2.46451e-06
-5.51427e-05
3.34524e-06
-5.90696e-05
4.70744e-06
-5.76631e-05
6.24489e-06
-5.77553e-05
7.76187e-06
-5.813e-05
9.25128e-06
-5.85977e-05
1.07166e-05
-5.91582e-05
1.20915e-05
-5.97548e-05
1.33752e-05
-6.00104e-05
1.45548e-05
-5.98781e-05
1.56067e-05
-5.92482e-05
1.64778e-05
-5.80613e-05
1.6988e-05
-5.56354e-05
1.71681e-05
-5.24061e-05
1.69259e-05
-4.81749e-05
1.61189e-05
-4.31675e-05
1.47269e-05
-3.75192e-05
1.27486e-05
-3.1272e-05
1.01401e-05
-2.47342e-05
7.07885e-06
-1.72041e-05
4.57616e-06
-8.88401e-06
3.54726e-06
-1.6817e-06
-1.49929e-07
3.38977e-06
1.70842e-06
-2.86115e-05
1.70465e-06
-2.71019e-05
2.3969e-06
-2.69593e-05
3.12478e-06
-2.6332e-05
3.76312e-06
-2.5364e-05
4.2923e-06
-2.41449e-05
4.6962e-06
-2.26659e-05
4.93796e-06
-2.09233e-05
4.97857e-06
-1.89616e-05
4.79608e-06
-1.65009e-05
4.4463e-06
-1.36455e-05
3.98142e-06
-1.07463e-05
3.44596e-06
-6.44062e-06
2.83835e-06
-3.25987e-06
2.20565e-06
-7.45544e-07
1.64508e-06
-2.03125e-08
1.15863e-06
-7.15353e-10
7.1307e-07
-3.64182e-11
5.11576e-07
-3.35279e-12
9.50452e-07
-8.68242e-12
6.24474e-07
-1.04057e-10
1.55727e-07
-3.97608e-10
-1.56745e-09
7.62636e-09
2.87814e-07
1.50695e-22
9.99144e-08
1.70033e-23
1.63277e-07
4.13945e-22
2.09281e-07
1.76314e-20
2.31498e-07
8.46464e-19
2.33233e-07
2.39037e-17
2.1852e-07
1.43686e-16
1.89056e-07
9.0323e-16
1.50422e-07
8.66042e-15
1.28324e-07
8.77547e-14
1.213e-07
5.02643e-13
1.72618e-07
1.40122e-12
1.22375e-07
9.51047e-13
7.80397e-08
5.85668e-13
2.10672e-08
3.63159e-13
7.54383e-10
2.81992e-13
3.89175e-11
1.12343e-13
2.78271e-12
-3.19705e-13
4.42331e-13
-1.40812e-12
2.0336e-12
-5.44141e-12
1.77282e-11
-6.87985e-11
9.04175e-11
-3.82908e-10
-1.74096e-09
3.22469e-10
2.03797e-26
1.82686e-24
-1.05833e-25
8.56391e-23
-6.3598e-24
8.40349e-22
-3.59525e-22
4.8309e-20
-2.37527e-20
2.29545e-18
-8.9099e-19
6.45482e-17
-7.3235e-18
3.93616e-16
-6.21082e-17
2.53635e-15
-7.65813e-16
2.41962e-14
-1.00657e-14
1.84397e-13
-7.22398e-14
1.00185e-12
-2.54927e-13
2.70958e-12
-2.24028e-13
1.78401e-12
-1.70513e-13
1.05943e-12
-1.33579e-13
6.40125e-13
-1.22828e-13
4.04907e-13
-5.44933e-14
8.01564e-14
5.8458e-14
-4.32364e-13
1.30253e-12
-2.60957e-12
1.30778e-11
-1.7387e-11
8.90949e-11
-1.47851e-10
4.39295e-10
-7.5583e-10
-3.08809e-09
1.66741e-09
1.04739e-24
1.16627e-24
-1.32924e-24
4.80671e-23
-2.63902e-23
9.2442e-22
-2.12925e-21
4.89596e-20
-1.29641e-19
2.14766e-18
-4.4513e-18
6.01225e-17
-3.15214e-17
4.29855e-16
-2.35685e-16
3.37457e-15
-2.75363e-15
3.17617e-14
-2.46741e-14
2.26839e-13
-1.56194e-13
1.06825e-12
-4.81843e-13
2.65454e-12
-3.51116e-13
1.52666e-12
-2.35678e-13
8.58993e-13
-1.58392e-13
4.85957e-13
-1.06407e-13
2.44385e-13
-2.16013e-14
-1.25225e-13
4.02688e-13
-9.08562e-13
3.92298e-12
-7.68579e-12
3.14944e-11
-5.8273e-11
2.37158e-10
-3.80756e-10
1.48467e-09
-2.11737e-09
-8.8728e-09
5.89652e-09
6.36544e-25
1.5244e-25
3.31344e-24
1.52501e-23
1.06018e-22
9.13627e-22
1.37601e-21
3.39527e-20
2.11095e-21
9.1886e-19
-1.24046e-21
1.85158e-17
3.67561e-18
2.8283e-16
1.1153e-16
3.25121e-15
1.56966e-15
2.73158e-14
1.22761e-14
1.59801e-13
4.03757e-14
5.93854e-13
3.16053e-14
1.14372e-12
2.42642e-14
6.26047e-13
1.9162e-14
3.35634e-13
1.34482e-14
1.63688e-13
-9.36579e-15
5.74418e-15
2.93982e-14
-1.78855e-13
3.16002e-13
-1.41968e-12
2.32054e-12
-1.15124e-11
1.46391e-11
-8.36628e-11
8.78766e-11
-5.31981e-10
4.76333e-10
-2.77957e-09
-1.13374e-08
4.10124e-09
3.35861e-25
2.40535e-29
3.35359e-23
1.148e-27
1.88211e-21
2.43454e-26
6.49314e-20
3.22027e-25
1.59639e-18
2.85724e-24
2.87519e-17
1.64412e-23
3.82987e-16
4.88031e-23
3.6974e-15
-2.83974e-22
2.46979e-14
-9.25646e-21
1.04091e-13
-1.33628e-19
2.26666e-13
-1.5659e-18
1.40285e-13
-1.5427e-17
8.50409e-14
-1.2595e-16
4.70247e-14
-1.13489e-15
1.86577e-15
-7.07734e-15
-1.0017e-13
-2.16097e-14
-1.21424e-13
-1.57601e-13
-6.88125e-13
-8.82002e-13
-6.67126e-12
-5.84047e-12
-5.87223e-11
-3.36542e-11
-4.39585e-10
-1.65224e-10
-2.39906e-09
-7.76791e-10
-2.23251e-09
-1.12853e-08
3.51238e-29
3.03266e-29
1.48461e-27
1.53134e-27
2.90557e-26
3.40742e-26
3.39682e-25
4.7583e-25
2.42383e-24
4.54733e-24
8.59006e-24
3.01526e-23
-1.22375e-23
1.26936e-22
-4.63875e-22
1.67664e-22
-7.72308e-21
-1.99726e-21
-1.03866e-19
-3.7485e-20
-1.17163e-18
-4.9814e-19
-1.09409e-17
-5.65774e-18
-1.12315e-16
-2.4576e-17
-1.1756e-15
-7.15981e-17
-7.8744e-15
-3.78541e-16
-2.64592e-14
-3.02489e-15
-1.66545e-13
-1.65849e-14
-9.5125e-13
-9.22788e-14
-6.17966e-12
-5.66601e-13
-3.66515e-11
-3.04227e-12
-1.87914e-10
-1.32386e-11
-9.11794e-10
-5.02708e-11
-1.29371e-10
-3.00683e-09
5.52737e-29
2.36191e-29
2.55318e-27
1.25994e-27
5.32845e-26
3.01014e-26
6.79309e-25
4.53696e-25
5.64106e-24
4.81147e-24
2.8656e-23
3.76618e-23
4.45304e-23
2.20609e-22
-6.13207e-22
9.51867e-22
-5.44321e-21
2.83275e-21
-4.75033e-20
4.57503e-21
-6.17884e-19
-5.99449e-21
-9.2071e-18
-3.42527e-20
-1.20284e-17
-3.2999e-19
-2.80899e-17
-2.61457e-18
-3.8076e-16
-3.06091e-17
-3.22343e-15
-2.14657e-16
-1.8859e-14
-1.13497e-15
-1.0352e-13
-6.55167e-15
-6.37544e-13
-4.20767e-14
-3.48969e-12
-2.09741e-13
-1.59272e-11
-8.83235e-13
-6.30908e-11
-3.43054e-12
-9.61087e-12
-1.84116e-10
5.11272e-29
8.78382e-30
2.54911e-27
4.84343e-28
5.85158e-26
1.21319e-26
8.35515e-25
1.92115e-25
8.24676e-24
2.15092e-24
5.85666e-23
1.79262e-23
2.9845e-22
1.13738e-22
1.03008e-21
5.49746e-22
1.90424e-21
1.9782e-21
-1.15528e-21
4.96274e-21
-1.42714e-20
7.12165e-21
-4.88588e-20
3.34663e-22
-3.59216e-19
-1.39143e-20
-2.75155e-18
-1.16668e-19
-3.17006e-17
-1.26466e-18
-2.34912e-16
-8.83259e-18
-1.24985e-15
-4.00742e-17
-7.62253e-15
-2.16915e-16
-4.76698e-14
-1.42075e-15
-2.45135e-13
-9.09589e-15
-1.06901e-12
-4.54841e-14
-4.24966e-12
-1.97722e-13
-6.82567e-13
-1.30455e-11
2.19514e-29
1.24387e-33
1.13997e-27
2.99466e-32
2.75531e-26
2.40983e-31
4.16605e-25
3.96136e-31
4.395e-24
-4.96263e-30
3.39041e-23
-1.06316e-28
1.93982e-22
-1.89062e-27
8.108e-22
-2.86659e-26
2.33062e-21
-3.77688e-25
3.79379e-21
-4.35461e-24
2.00732e-22
-4.08787e-23
-1.0883e-20
-1.75184e-22
-2.39773e-20
-8.20002e-22
-1.38475e-19
-4.59224e-21
-1.38744e-18
-3.25187e-20
-1.01167e-17
-1.76134e-19
-5.52957e-17
-6.5543e-19
-2.71153e-16
-1.62931e-18
-1.68573e-15
-5.15646e-18
-1.07937e-14
-2.66915e-17
-5.65889e-14
-8.84554e-17
-2.57611e-13
-2.97415e-16
-1.21717e-15
-9.52268e-13
1.48822e-33
-7.43998e-38
2.4797e-32
-8.45826e-36
6.20985e-32
-4.51498e-34
-1.05e-30
-1.60101e-32
-5.29931e-30
-7.13318e-31
-9.66414e-29
-1.4974e-29
-1.72616e-27
-2.61097e-28
-2.65146e-26
-3.8774e-27
-3.69385e-25
-4.69686e-26
-5.91359e-24
-3.09965e-25
-4.81408e-23
-3.16709e-24
-1.34132e-22
-2.78961e-23
-6.80915e-22
-2.13403e-22
-4.65104e-21
-1.55447e-21
-3.46358e-20
-1.10541e-20
-2.53606e-19
-7.38492e-20
-1.02749e-18
-3.85947e-19
-2.48409e-18
-1.21897e-18
-6.16395e-18
-3.24641e-18
-2.53505e-17
-8.62136e-18
-1.06626e-16
-1.66359e-17
-3.9115e-16
-2.30876e-17
-3.2028e-17
-1.58309e-15
-6.70197e-38
-7.38009e-39
-7.69284e-36
-8.32443e-37
-4.14496e-34
-4.46954e-35
-1.48242e-32
-1.60041e-33
-6.95648e-31
-4.08633e-32
-1.5024e-29
-8.68197e-31
-2.65408e-28
-1.53861e-29
-3.98993e-27
-2.34002e-28
-4.88899e-26
-2.9502e-27
-3.48301e-25
-2.1085e-26
-3.47428e-24
-2.22813e-25
-3.0896e-23
-2.15648e-24
-2.39121e-22
-1.89719e-23
-1.79501e-21
-1.52889e-22
-1.51844e-20
-1.13688e-21
-1.2133e-19
-8.07276e-21
-6.70348e-19
-5.56332e-20
-2.47299e-18
-3.20972e-19
-7.95172e-18
-1.52457e-18
-2.27456e-17
-5.94024e-18
-4.2487e-17
-1.4766e-17
-5.0211e-17
-3.01248e-17
-3.91746e-17
-5.50984e-17
-7.35901e-39
-2.61603e-41
-8.37328e-37
-2.98743e-39
-4.53961e-35
-1.6314e-37
-1.64077e-33
-5.95852e-36
-4.23725e-32
-1.55941e-34
-9.07718e-31
-3.37144e-33
-1.62232e-29
-6.22278e-32
-2.49063e-28
-9.90218e-31
-3.18259e-27
-1.31684e-29
-2.41175e-26
-1.04742e-28
-2.46451e-25
-1.12287e-27
-2.39797e-24
-1.13382e-26
-2.13174e-23
-1.04657e-25
-1.73708e-22
-8.88704e-25
-1.3098e-21
-6.98374e-24
-9.81831e-21
-5.13912e-23
-7.35008e-20
-3.82612e-22
-4.67828e-19
-2.4865e-21
-2.79239e-18
-1.39051e-20
-1.50446e-17
-6.93137e-20
-4.76455e-17
-2.77375e-19
-8.65723e-17
-7.48814e-19
-1.34854e-18
-1.09882e-16
-2.61847e-41
2.4405e-44
-3.01198e-39
-1.8817e-42
-1.66051e-37
-1.07104e-40
-6.1201e-36
-4.09007e-39
-1.61923e-34
-1.09221e-37
-3.50481e-33
-2.57019e-36
-6.52092e-32
-5.23638e-35
-1.04628e-30
-9.1257e-34
-1.40756e-29
-1.33247e-32
-1.184e-28
-1.27004e-31
-1.2402e-27
-1.42652e-30
-1.25766e-26
-1.517e-29
-1.17171e-25
-1.48364e-28
-1.0053e-24
-1.33907e-27
-7.98341e-24
-1.12193e-26
-5.99788e-23
-8.82617e-26
-4.78294e-22
-7.04399e-25
-3.29974e-21
-4.90828e-24
-2.0811e-20
-2.96752e-23
-1.18604e-19
-1.61633e-22
-4.76503e-19
-7.23991e-22
-1.3117e-18
-2.10743e-21
-3.73729e-21
-2.5734e-18
-6.48454e-44
-2.34502e-49
-1.94449e-42
-5.01672e-47
-1.0875e-40
-3.33147e-45
-4.18275e-39
-1.46335e-43
-1.09581e-37
-3.46586e-42
-2.60802e-36
-8.46717e-41
-5.35875e-35
-1.73207e-39
-9.43055e-34
-3.05195e-38
-1.41702e-32
-4.67682e-37
-1.41169e-31
-5.53073e-36
-1.56764e-30
-6.55478e-35
-1.6737e-29
-7.42429e-34
-1.65096e-28
-7.77964e-33
-1.50416e-27
-7.53815e-32
-1.27231e-26
-6.79217e-31
-1.0199e-25
-5.74871e-30
-8.74312e-25
-4.88431e-29
-6.46691e-24
-3.8285e-28
-4.39319e-23
-2.62451e-27
-2.83329e-22
-1.41777e-26
-1.30367e-21
-5.53398e-26
-3.46992e-21
-1.60306e-25
-5.5155e-25
-5.96729e-21
-2.33979e-49
-5.22506e-52
-5.23936e-47
-4.98209e-50
-3.30463e-45
-3.18151e-48
-1.45969e-43
-1.39853e-46
-3.6078e-42
-4.54869e-45
-8.81737e-41
-1.201e-43
-1.81792e-39
-2.65725e-42
-3.22936e-38
-5.06322e-41
-4.99251e-37
-8.3994e-40
-6.02091e-36
-1.08748e-38
-7.14569e-35
-1.38672e-37
-8.13694e-34
-1.69948e-36
-8.58757e-33
-1.93556e-35
-8.38807e-32
-2.04014e-34
-7.62162e-31
-2.00295e-33
-6.54395e-30
-1.84727e-32
-6.04398e-29
-1.68649e-31
-5.30714e-28
-1.45458e-30
-3.99151e-27
-1.13001e-29
-2.24293e-26
-7.06349e-29
-8.68271e-26
-3.14223e-28
-2.54406e-25
-1.00451e-27
-3.74923e-27
-9.24342e-25
-5.22304e-52
-2.09787e-55
-5.03223e-50
-2.21412e-53
-3.23038e-48
-1.55116e-51
-1.43014e-46
-7.47956e-50
-4.68923e-45
-2.66816e-48
-1.24718e-43
-7.71262e-47
-2.78027e-42
-1.86676e-45
-5.33729e-41
-3.89594e-44
-8.92578e-40
-7.08532e-43
-1.17559e-38
-1.01492e-41
-1.50348e-37
-1.41325e-40
-1.85075e-36
-1.89987e-39
-2.12004e-35
-2.37184e-38
-2.25096e-34
-2.74411e-37
-2.2267e-33
-2.96016e-36
-2.07456e-32
-2.99762e-35
-2.01649e-31
-2.94017e-34
-1.96052e-30
-2.83736e-33
-1.70513e-29
-2.51542e-32
-1.12393e-28
-1.84056e-31
-4.94985e-28
-9.45804e-31
-1.56636e-27
-3.37924e-30
-1.67603e-29
-5.30092e-27
-2.09764e-55
-2.2952e-59
-2.23487e-53
-2.68642e-57
-1.57369e-51
-2.09262e-55
-7.63574e-50
-1.11607e-53
-2.74397e-48
-4.40187e-52
-7.98556e-47
-1.40165e-50
-1.9454e-45
-3.75808e-49
-4.0875e-44
-8.71013e-48
-7.48672e-43
-1.75854e-46
-1.08895e-41
-2.8176e-45
-1.53204e-40
-4.39882e-44
-2.05254e-39
-6.51716e-43
-2.57731e-38
-8.9911e-42
-3.00134e-37
-1.15074e-40
-3.25966e-36
-1.37435e-39
-3.32444e-35
-1.54026e-38
-3.37349e-34
-1.63405e-37
-3.66281e-33
-1.7644e-36
-3.70871e-32
-1.79647e-35
-2.90789e-31
-1.55602e-34
-1.47823e-30
-9.35492e-34
-5.13237e-30
-3.76835e-33
-2.61322e-32
-2.18698e-29
-2.2952e-59
-1.72934e-66
-2.72959e-57
-2.5091e-64
-2.11941e-55
-2.20048e-62
-1.13622e-53
-1.30892e-60
-4.51507e-52
-5.73608e-59
-1.44518e-50
-2.02742e-57
-3.89762e-49
-6.14182e-56
-9.08423e-48
-1.59693e-54
-1.8446e-46
-3.61324e-53
-3.04669e-45
-6.667e-52
-4.70349e-44
-1.17388e-50
-6.98751e-43
-1.93585e-49
-9.68985e-42
-2.97647e-48
-1.24764e-40
-4.25086e-47
-1.49911e-39
-5.66816e-46
-1.69017e-38
-7.0958e-45
-1.81051e-37
-8.39657e-44
-2.15799e-36
-9.85642e-43
-2.55917e-35
-1.16885e-41
-2.42386e-34
-1.16214e-40
-1.44073e-33
-7.87681e-40
-5.55079e-33
-3.61332e-39
-3.08987e-38
-3.1683e-32
-1.67126e-66
-5.39297e-71
-2.51804e-64
-1.19625e-68
-2.18852e-62
-1.15858e-66
-1.33058e-60
-7.99922e-65
-5.86283e-59
-3.70775e-63
-2.08272e-57
-1.5006e-61
-6.33622e-56
-5.0764e-60
-1.65526e-54
-1.47576e-58
-3.77662e-53
-3.75882e-57
-7.04391e-52
-8.19652e-56
-1.24417e-50
-1.62689e-54
-2.06e-49
-3.02155e-53
-3.18249e-48
-5.23649e-52
-4.56907e-47
-8.43773e-51
-6.12464e-46
-1.26952e-49
-7.70765e-45
-1.79392e-48
-9.18019e-44
-2.39287e-47
-1.15207e-42
-3.03654e-46
-1.58744e-41
-3.96441e-45
-1.70834e-40
-5.03787e-44
-1.18214e-39
-4.71162e-43
-5.18538e-39
-2.73739e-42
-2.89843e-41
-3.60625e-38
-5.39256e-71
-3.18166e-75
-9.54458e-69
-6.40077e-73
-1.16698e-66
-8.09621e-71
-8.16228e-65
-6.34806e-69
-3.78893e-63
-3.66211e-67
-1.53831e-61
-1.69834e-65
-5.22949e-60
-6.57773e-64
-1.52781e-58
-2.18769e-62
-3.91091e-57
-6.3728e-61
-8.58584e-56
-1.59153e-59
-1.7123e-54
-3.60986e-58
-3.19194e-53
-7.65306e-57
-5.5577e-52
-1.51624e-55
-8.99204e-51
-2.79172e-54
-1.35918e-49
-4.8009e-53
-1.92946e-48
-7.75572e-52
-2.58525e-47
-1.183e-50
-3.3086e-46
-1.71376e-49
-4.88803e-45
-2.47277e-48
-7.40475e-44
-3.85817e-47
-7.26146e-43
-4.1394e-46
-3.83587e-42
-2.64043e-45
-2.98652e-44
-3.28113e-41
-3.18159e-75
-5.01774e-80
-6.43242e-73
-1.17812e-77
-8.1603e-71
-1.73416e-75
-6.4292e-69
-1.58435e-73
-3.72703e-67
-1.06396e-71
-1.73554e-65
-5.73282e-70
-6.75097e-64
-2.57783e-68
-2.25517e-62
-9.95809e-67
-6.59784e-61
-3.36896e-65
-1.65715e-59
-9.7807e-64
-3.77396e-58
-2.57428e-62
-8.04567e-57
-6.34928e-61
-1.59679e-55
-1.45851e-59
-2.95124e-54
-3.11522e-58
-5.09559e-53
-6.21544e-57
-8.26454e-52
-1.16517e-55
-1.26552e-50
-2.06288e-54
-1.84233e-49
-3.46607e-53
-2.91075e-48
-5.60957e-52
-5.40233e-47
-1.03992e-50
-5.81024e-46
-1.38361e-49
-3.44815e-45
-1.06186e-48
-1.35954e-47
-3.33436e-44
-5.01762e-80
-8.63572e-85
-1.1831e-77
-2.37559e-82
-1.74426e-75
-4.12014e-80
-1.60751e-73
-4.48974e-78
-1.07998e-71
-3.55694e-76
-5.84069e-70
-2.26321e-74
-2.63752e-68
-1.20358e-72
-1.02236e-66
-5.51043e-71
-3.47084e-65
-2.20753e-69
-1.012e-63
-7.59156e-68
-2.68234e-62
-2.3762e-66
-6.63585e-61
-6.97869e-65
-1.52487e-59
-1.89287e-63
-3.26745e-58
-4.78387e-62
-6.54148e-57
-1.12963e-60
-1.23044e-55
-2.50701e-59
-2.18567e-54
-5.25644e-58
-3.68414e-53
-1.04611e-56
-6.08124e-52
-1.98729e-55
-1.35364e-50
-3.78047e-54
-1.79556e-49
-7.50769e-53
-1.30743e-48
-8.66504e-52
-1.36182e-50
-1.49137e-47
-8.63552e-85
-1.16125e-89
-2.35337e-82
-3.95174e-87
-4.30413e-80
-8.98247e-85
-4.53197e-78
-1.16359e-82
-3.603e-76
-1.11781e-80
-2.30504e-74
-8.5955e-79
-1.22782e-72
-5.58206e-77
-5.63218e-71
-3.10702e-75
-2.26279e-69
-1.5137e-73
-7.82803e-68
-6.34642e-72
-2.48156e-66