/*--------------------------------*- C++ -*----------------------------------*\
| =========                 |                                                 |
| \\      /  F ield         | OpenFOAM: The Open Source CFD Toolbox           |
|  \\    /   O peration     | Version:  2206                                  |
|   \\  /    A nd           | Website:  www.openfoam.com                      |
|    \\/     M anipulation  |                                                 |
\*---------------------------------------------------------------------------*/
FoamFile
{
    version     2.0;
    format      ascii;
    arch        "LSB;label=32;scalar=64";
    class       volScalarField;
    location    "0.15";
    object      alpha.water;
}
// * * * * * * * * * * * * * * * * * * * * * * * * * * * * * * * * * * * * * //

dimensions      [0 0 0 0 0 0 0];

internalField   nonuniform List<scalar> 
2268
(
1
0.999999
0.999999
1
1
1
1
1
0.999999
1
1
1
1
0.999999
0.999998
0.999998
0.999999
1
0.999999
0.999999
0.999999
1
1
0.999999
0.999999
1
1
1
1
1
1
1
1
1
1
0.999999
0.999998
0.999998
0.999999
1
0.999998
0.999998
0.999999
1
1
1
1
1
1
1
1
1
1
1
1
1
1
1
1
1
1
1
1
1
0.999998
1
1
1
1
1
1
1
1
1
1
1
1
1
1
1
1
1
1
1
1
1
1
1
1
1
1
1
1
1
1
1
1
1
1
1
1
1
1
1
1
1
1
1
1
1
1
1
1
1
1
1
1
1
1
1
1
1
1
0.999999
0.999999
1
1
1
1
1
1
1
1
1
1
1
1
1
1
1
1
1
1
1
1
1
0.999999
0.999999
1
1
1
1
1
1
1
1
1
1
1
1
1
1
1
1
1
1
1
1
1
0.999999
0.999999
0.999999
1
1
1
1
1
1
1
1
1
1
1
1
7.92703e-07
7.91623e-07
4.84761e-06
9.06076e-05
0.000583653
0.00133262
0.00207022
0.00109487
0.000482124
0.000107318
1.41565e-05
1.9045e-06
2.04773e-07
1.65e-08
9.87754e-10
4.23659e-11
1.2198e-12
4.67314e-14
3.40828e-14
7.92703e-07
1.3065e-06
9.82557e-06
0.000134818
0.00109406
0.00174513
0.00416725
0.00276528
0.00196718
0.000626569
5.87904e-05
9.19799e-06
1.06524e-06
9.36813e-08
6.13194e-09
2.87718e-10
8.73715e-12
1.45603e-13
3.40828e-14
1.23751e-06
1.76776e-06
2.43291e-05
0.000419704
0.000563427
0.00407931
0.021962
0.020754
0.0140277
0.000812825
0.000133389
1.91914e-05
2.10236e-06
1.76885e-07
1.11594e-08
5.07146e-10
1.49768e-11
3.53741e-13
1.49609e-13
1.68233e-06
1.68233e-06
1.11179e-05
2.50157e-05
0.0019274
0.0620423
0.133215
0.149918
0.0297305
0.00135118
0.000235527
3.16172e-05
3.30704e-06
2.66296e-07
1.63139e-08
7.1788e-10
2.06261e-11
5.29736e-13
3.55692e-13
1.68233e-06
6.28973e-06
8.82359e-06
0.000263795
0.0966187
0.263086
0.28517
0.137154
0.0258587
0.00140227
0.00023579
3.09042e-05
3.18217e-06
2.54317e-07
1.53696e-08
6.74612e-10
1.91607e-11
4.88822e-13
3.08528e-13
1.82125e-06
8.87544e-06
0.000264929
0.167488
0.451516
0.4791
0.205053
0.0200016
0.00478821
0.00273804
0.000484649
2.82038e-05
2.13549e-06
1.71847e-07
1.04464e-08
4.58348e-10
1.31397e-11
3.06998e-13
1.6284e-13
7.04426e-06
0.0555549
0.258238
0.767276
0.730585
0.370524
0.0447958
0.00559368
0.00293805
0.00159547
0.000384997
2.14188e-05
1.17201e-06
9.47507e-08
5.7923e-09
2.55183e-10
7.54184e-12
3.58029e-13
6.59107e-14
0.518123
0.720935
0.953326
0.894739
0.67136
0.159311
0.00883285
0.00225224
0.000950572
0.000286125
8.65923e-05
7.60032e-06
5.6531e-07
4.57509e-08
2.80124e-09
1.23891e-10
3.90697e-12
4.07834e-13
1.7144e-14
1
1
1
1
1
1
1
1
1
0.999999
0.999999
1
1
1
1
1
1
1
1
1
1
1
1
1
0.999999
1
1
1
1
1
1
0.999999
0.999999
0.999999
1
1
1
1
1
1
1
1
1
1
1
1
0.999999
0.999999
1
1
1
1
1
1
0.999999
0.999999
1
1
1
1
1
1
1
1
1
1
1
1
1
0.999999
0.999999
1
1
1
1
1
1
1
1
1
1
1
1
1
1
1
1
1
1
1
1
1
1
1
1
1
1
1
1
1
1
1
1
1
1
1
1
1
1
1
1
1
1
1
1
1
1
1
1
1
1
1
1
1
1
1
1
1
1
1
1
1
1
1
1
0.999999
0.999998
0.999997
1
0.999999
1
1
1
1
1
0.999999
0.999999
0.999999
0.999999
0.999999
0.999999
0.999999
0.999999
0.999998
0.999998
0.999997
0.999996
0.999994
0.999994
0.999984
0.999976
0.999999
0.999998
0.999998
0.999999
0.999999
0.999998
0.999998
0.999998
0.999997
0.999997
0.999996
0.999996
0.999995
0.999993
0.999992
0.999989
0.999985
0.999979
0.999976
0.99996
0.999935
0.999914
0.999851
0.999995
0.999989
0.999991
0.999991
0.999991
0.99999
0.999988
0.999987
0.999985
0.999982
0.999979
0.999974
0.999968
0.99996
0.99995
0.999934
0.99991
0.999876
0.999836
0.999821
0.999654
0.999463
0.999268
0.999969
0.999939
0.999947
0.999948
0.999945
0.99994
0.999933
0.999925
0.999914
0.9999
0.999882
0.999859
0.999828
0.999785
0.999728
0.999649
0.999534
0.999386
0.999131
0.998839
0.998491
0.997524
0.996538
0.99981
0.999679
0.999715
0.999714
0.999696
0.99967
0.999637
0.999595
0.999541
0.999473
0.999386
0.999276
0.999129
0.99893
0.998663
0.998296
0.997787
0.997102
0.996216
0.99466
0.992649
0.990031
0.986249
0.998908
0.998387
0.998528
0.998503
0.998413
0.99829
0.998133
0.997935
0.997689
0.997379
0.99699
0.996505
0.995867
0.995004
0.993876
0.992337
0.990218
0.987413
0.981683
0.958646
0.907094
0.848372
0.825303
0.994084
0.992197
0.992673
0.99249
0.992073
0.991521
0.990821
0.989949
0.98697
0.981657
0.973545
0.962491
0.94304
0.914517
0.876987
0.826431
0.758244
0.673952
0.573381
0.455682
0.309215
0.195309
0.151196
0.769063
0.726533
0.732167
0.721682
0.704445
0.682235
0.654511
0.621111
0.58324
0.538025
0.485648
0.427354
0.362482
0.298121
0.233539
0.174332
0.121525
0.0749253
0.0373805
0.0131147
1.83394e-07
8.16382e-07
3.37119e-06
0.108712
0.087761
0.0888967
0.0827907
0.0742231
0.0639722
0.0523396
0.0397765
0.0269924
0.0164108
0.00784291
-1.32161e-13
-2.97032e-17
-2.1e-21
1.85431e-36
-5.52482e-34
-2.67352e-31
5.28883e-10
6.09005e-09
1.49539e-08
3.03205e-08
1.83445e-07
8.16459e-07
-2.49891e-18
-2.89619e-19
-6.90696e-18
-2.9209e-16
-1.39666e-14
-3.91808e-13
-2.33395e-12
-1.45227e-11
-1.37942e-10
-1.37723e-09
-7.68277e-09
-2.08286e-08
-1.40556e-08
-8.42191e-09
-5.10711e-09
-3.76743e-09
-1.40396e-09
-1.23759e-12
1.95461e-10
5.03933e-09
4.82116e-08
3.41772e-07
2.01069e-06
-3.03294e-20
-1.44795e-18
-1.3893e-17
-7.96213e-16
-3.75829e-14
-1.04817e-12
-6.30511e-12
-4.00477e-11
-3.77725e-10
-2.81628e-09
-1.4972e-08
-3.93286e-08
-2.49826e-08
-1.4346e-08
-8.31141e-09
-4.9806e-09
-9.2957e-10
1.79913e-09
2.2661e-08
1.81527e-07
1.08537e-06
5.86977e-06
3.40088e-05
-1.95975e-20
-7.90741e-19
-1.50387e-17
-7.96749e-16
-3.47225e-14
-9.63833e-13
-6.80356e-12
-5.25476e-11
-4.85191e-10
-3.38839e-09
-1.55753e-08
-3.75382e-08
-2.08522e-08
-1.12696e-08
-6.1014e-09
-2.92308e-09
3.58807e-10
6.60103e-09
5.4936e-08
3.83745e-07
2.39742e-06
1.29874e-05
4.91535e-05
-2.59665e-21
-2.48486e-19
-1.4842e-17
-5.51696e-16
-1.48468e-14
-2.96811e-13
-4.4816e-12
-5.07529e-11
-4.18765e-10
-2.39867e-09
-8.695e-09
-1.62747e-08
-8.6257e-09
-4.45751e-09
-2.07428e-09
-7.03808e-11
-4.34134e-16
1.60019e-09
1.47049e-08
1.02913e-07
6.40164e-07
3.16364e-06
1.71455e-05
-4.19375e-25
-1.89866e-23
-4.03038e-22
-5.31578e-21
-4.69289e-20
-2.6801e-19
-7.87417e-19
0
-3.9443e-33
0
0
-1.73452e-37
-1.60081e-37
-9.21557e-35
-2.37803e-18
-6.41631e-17
7.78315e-11
4.61356e-10
2.15785e-09
9.78106e-09
3.81872e-08
1.29361e-07
3.9428e-07
-5.46375e-25
-2.61191e-23
-5.8126e-22
-8.09145e-21
-7.69707e-20
-5.06944e-19
-2.11595e-18
-2.76563e-18
0
0
4.64088e-16
8.28473e-14
3.21546e-13
1.58141e-13
1.57515e-13
1.01403e-12
6.2138e-12
1.70845e-11
1.26129e-10
7.30386e-10
2.81563e-09
9.63608e-09
3.0175e-08
-4.42403e-25
-2.2358e-23
-5.33449e-22
-8.02052e-21
-8.47445e-20
-6.5999e-19
-3.84125e-18
-1.64459e-17
-4.8504e-17
-7.75418e-17
0
1.47588e-32
1.91981e-16
2.26644e-15
7.96471e-15
5.02329e-14
-1.66593e-13
-1.30893e-12
8.34953e-12
3.19917e-11
1.1023e-10
3.8626e-10
1.63493e-09
-1.71891e-25
-8.99243e-24
-2.25036e-22
-3.55746e-21
-3.9729e-20
-3.30048e-19
-2.08574e-18
-1.00339e-17
-3.59131e-17
-8.95709e-17
-1.27749e-16
-5.96618e-18
-7.88763e-24
4.46273e-17
3.02153e-16
7.4346e-16
-4.98937e-14
2.09817e-14
-8.38719e-14
-1.32061e-12
-7.51892e-12
-2.8277e-11
-1.09214e-10
-2.55622e-29
-5.84476e-28
-4.70381e-27
-7.72792e-27
-2.48942e-34
-2.39636e-32
-1.11386e-30
-3.31581e-29
1.18383e-22
1.65485e-20
5.83058e-19
1.9194e-18
2.55667e-18
1.89758e-17
1.2947e-16
1.34748e-15
8.70845e-15
2.27114e-14
4.21225e-14
8.80837e-14
2.18448e-13
3.46579e-13
3.91047e-13
0
0
-2.44656e-42
-1.61652e-38
1.65256e-28
4.38914e-27
9.20073e-26
1.59383e-24
2.156e-23
2.57221e-22
3.83112e-21
3.91754e-20
3.40296e-19
3.09554e-18
4.49676e-17
6.00654e-16
4.81236e-15
2.17075e-14
6.82948e-14
1.93166e-13
4.16305e-13
5.57079e-13
6.03466e-13
1.82746e-37
1.98243e-35
1.07764e-33
3.91389e-32
1.07022e-30
2.34582e-29
-1.48552e-29
-1.13677e-27
-4.31727e-26
-5.4154e-25
1.16894e-23
2.31876e-22
2.24073e-21
1.70549e-20
1.78296e-19
9.0119e-18
2.06481e-16
2.02173e-15
1.50411e-14
9.88045e-14
4.17879e-13
9.06557e-13
1.25312e-12
-2.67691e-53
1.32669e-38
4.43684e-37
-6.32072e-36
-9.42189e-34
-1.19364e-30
-2.20697e-29
-3.96664e-28
-6.04249e-27
-3.72708e-26
1.96458e-26
2.88536e-25
3.45178e-24
3.23623e-23
2.38709e-22
1.52798e-20
1.04992e-18
1.27152e-17
1.04931e-16
7.44636e-16
3.86526e-15
1.19189e-14
2.40246e-14
-6.36294e-40
-9.92416e-41
-1.54101e-38
-8.59313e-37
-2.2453e-34
-4.17361e-33
-8.15425e-32
-1.34669e-30
-1.687e-29
7.03406e-32
8.44253e-31
9.49832e-30
1.037e-28
1.8599e-27
1.58476e-26
2.28792e-23
2.02893e-21
2.62772e-20
2.35118e-19
1.871e-18
1.1208e-17
3.65912e-17
6.99294e-17
-7.96546e-61
-9.87085e-44
-6.48078e-42
-2.74914e-40
5.4701e-41
1.45521e-39
3.24257e-38
6.22684e-37
1.02701e-35
1.53241e-34
2.05013e-33
3.23605e-32
5.26738e-31
5.88532e-30
5.23032e-29
1.46381e-27
1.26754e-25
2.2947e-24
2.62176e-23
1.89623e-22
8.40349e-22
1.03907e-21
6.07964e-22
1.84144e-51
2.68677e-49
1.94417e-47
9.12241e-46
3.3999e-44
9.8562e-43
2.3825e-41
1.84391e-40
2.38851e-39
-9.17846e-39
-5.77802e-37
3.18563e-35
6.92106e-34
8.52542e-33
8.40268e-32
2.8137e-30
3.4768e-28
7.86647e-27
1.11556e-25
9.91162e-25
5.1244e-24
7.11296e-24
3.77651e-25
2.129e-55
3.44029e-53
-6.00333e-51
1.41469e-49
3.63113e-48
2.40716e-47
-9.54466e-44
-2.1885e-42
-5.12064e-41
-1.06378e-39
-8.72272e-39
1.1852e-38
2.55992e-37
3.82573e-36
4.21991e-35
1.38297e-33
3.36966e-31
1.27557e-29
2.35732e-28
2.64857e-27
1.62424e-26
2.53356e-26
5.07491e-28
1.74857e-62
-3.62448e-55
-3.57486e-55
-1.29503e-52
-1.03182e-50
-4.26216e-48
-1.03312e-46
-2.59296e-45
-5.57434e-44
-7.99317e-43
1.42791e-46
1.68481e-45
-7.75497e-45
-2.10888e-43
5.13797e-42
2.80637e-40
2.36175e-35
5.73225e-33
1.52464e-31
2.25827e-30
1.67503e-29
2.95474e-29
5.93457e-34
-3.65036e-63
-5.19104e-63
-2.87834e-60
-2.32741e-58
-5.45264e-56
-1.2815e-54
-3.58397e-53
-8.50712e-52
-1.63272e-50
1.52277e-51
3.16153e-50
5.86435e-49
1.20829e-47
2.99548e-46
4.87212e-45
6.47204e-44
4.59077e-42
2.06732e-39
9.59252e-38
1.72664e-36
1.45347e-35
2.90236e-35
5.61288e-37
5.19101e-71
-1.1743e-65
-1.03815e-63
-6.57033e-62
6.55171e-63
3.08023e-61
1.2026e-59
4.03058e-58
1.00303e-56
2.52903e-55
4.8e-54
7.89541e-53
4.08769e-51
1.10699e-49
1.9784e-48
3.30272e-47
4.77907e-46
4.05595e-44
1.57755e-41
6.07052e-40
8.47574e-39
2.12072e-38
6.57594e-40
8.53357e-76
2.37503e-73
3.24636e-71
9.28774e-70
1.99432e-67
1.04771e-65
3.99439e-64
-1.08912e-61
-3.86573e-60
-1.67525e-58
-6.19352e-57
-7.47951e-56
3.58071e-55
1.28857e-53
2.7074e-52
5.23993e-51
8.88029e-50
4.82311e-48
5.74247e-45
4.84071e-43
7.74493e-42
2.09589e-41
-1.94202e-43
1.52417e-80
4.96903e-78
-1.23177e-74
8.18718e-74
2.28321e-72
-6.64946e-70
-1.10679e-66
-4.41072e-65
-1.82346e-63
-6.90601e-62
-1.79798e-60
1.63763e-60
5.3495e-59
2.05434e-57
5.06139e-56
1.15869e-54
2.51182e-53
4.83755e-52
3.18262e-49
1.16908e-46
2.5358e-45
7.90423e-45
-6.97044e-46
2.14787e-85
-3.0465e-80
-3.64592e-81
-2.20729e-77
-6.39785e-75
-4.07517e-72
-1.82625e-70
-8.78578e-69
-3.59448e-67
-1.29812e-65
5.84021e-66
2.13038e-64
8.96084e-63
4.01573e-61
1.19427e-59
3.32523e-58
8.77162e-57
2.08025e-55
7.86839e-54
1.23753e-50
1.06797e-48
4.81608e-48
-3.12359e-48
-1.18209e-86
-1.94353e-86
-2.71757e-83
-1.23091e-80
-5.16992e-78
-2.39702e-76
-1.40029e-74
-6.91207e-73
-2.84022e-71
5.90998e-72
2.9751e-70
1.35678e-68
6.77833e-67
4.24318e-65
1.6029e-63
5.65471e-62
1.89146e-60
6.0416e-59
1.7516e-57
1.1037e-54
4.34545e-52
3.10601e-51
-1.39451e-50
3.00298e-97
-1.38668e-90
-2.8115e-87
-4.45921e-85
5.37473e-87
4.5856e-85
8.92088e-83
8.55409e-81
-1.16163e-78
-7.8683e-77
-7.30591e-75
-5.72622e-73
7.5316e-72
1.40235e-69
7.38328e-68
3.56027e-66
1.62787e-64
7.12263e-63
2.97321e-61
1.19079e-59
5.90934e-58
2.43879e-56
-1.20813e-54
6.1251e-107
8.47318e-103
7.74339e-100
-9.46859e-95
-1.52714e-91
-5.46769e-92
-2.63175e-88
-1.69189e-84
-1.63274e-82
-1.78712e-80
-1.75299e-78
-1.32173e-76
-8.85627e-77
2.28477e-75
2.57223e-73
2.04186e-71
1.53256e-69
1.09795e-67
7.53283e-66
4.94604e-64
3.13343e-62
1.9958e-60
-3.4468e-59
0
-8.04546e-121
-7.19548e-104
-1.49751e-100
-4.37184e-100
-1.35556e-96
-5.84767e-93
-9.33324e-91
-1.55025e-88
-2.31876e-86
-3.08189e-84
-3.78084e-83
-4.37706e-87
-4.33339e-86
4.36791e-83
2.23921e-80
5.80088e-78
1.28411e-75
2.69847e-73
5.47957e-71
1.05938e-68
2.03117e-66
-6.05656e-62
0
-8.11923e-123
-4.1241e-117
-1.43025e-115
-4.55156e-112
-9.1576e-109
-9.97205e-106
-5.36662e-103
-2.46105e-100
-1.01621e-97
-9.32983e-96
-4.76359e-98
-1.59874e-95
-2.57809e-93
-9.17934e-92
-2.10554e-91
-3.09913e-91
-9.26801e-89
-2.56973e-86
-6.64594e-84
-1.61362e-81
-3.69908e-79
-8.5143e-67
1
1
1
0.999995
1
1
0.999996
0.999949
1
1
0.999952
0.999051
1
0.999992
0.999563
0.899022
0.999997
0.99992
0.976388
0.429579
0.999975
0.999472
0.573206
0.058955
0.999856
0.94848
0.193559
0.00836001
0.999227
0.461887
0.0169906
0.00164204
0.996538
0.143317
0.00258115
0.000230505
0.641631
0.0202724
0.00024782
2.82361e-05
0.232278
0.000768845
2.17792e-05
3.43636e-06
0.101508
3.08519e-05
1.04543e-06
5.21547e-07
0.0239677
-1.42611e-07
1.14641e-07
8.10532e-08
0.00202697
1.31517e-05
1.78605e-08
1.16619e-08
9.30755e-05
0.000203807
4.56565e-09
1.68703e-09
1.84524e-05
0.00222196
1.68703e-09
2.55995e-10
0.000368162
0.00333226
3.2359e-07
4.1029e-11
0.00103973
0.00334221
4.67049e-05
6.60305e-12
0.000994428
0.00242164
6.60304e-12
9.60337e-13
2.87644e-06
0.000312495
9.60337e-13
1.10663e-13
1.23139e-06
1.01327e-05
1.26055e-07
9.11977e-15
1.20766e-07
7.51266e-07
5.37621e-07
5.23299e-16
8.21953e-09
3.83932e-08
5.96412e-08
2.19124e-17
6.3284e-13
5.23018e-13
-4.22526e-14
7.21741e-19
6.77355e-13
3.67764e-13
-6.42387e-17
5.63125e-20
1.43024e-12
1.23442e-12
1.15343e-14
9.75697e-21
3.83621e-14
3.63319e-14
5.13856e-17
7.85451e-21
1.1507e-16
1.39171e-16
1.92667e-18
4.69676e-22
1.36863e-19
4.86581e-19
6.11089e-19
6.56342e-23
1.139e-21
4.88173e-21
6.41484e-21
5.54442e-25
5.02836e-24
2.68449e-23
3.83421e-23
6.97006e-27
7.37395e-27
4.89831e-26
7.63971e-26
4.77826e-29
4.65102e-33
1.81091e-31
1.00857e-30
1.72235e-30
4.80866e-37
2.52414e-34
4.29691e-33
1.39892e-32
1.10606e-40
2.42437e-37
1.10612e-35
8.37931e-35
4.99659e-45
5.52868e-42
8.15849e-39
3.17435e-37
3.62448e-48
1.3872e-45
3.65331e-42
9.92683e-40
2.05207e-50
2.18184e-48
1.30641e-45
2.90665e-42
1.62159e-53
2.40741e-51
1.60007e-48
7.22349e-45
3.61026e-57
1.19043e-54
1.3742e-51
1.23476e-47
-2.38411e-62
3.49101e-59
7.67272e-55
1.37099e-50
-3.07467e-66
1.65939e-62
7.25491e-57
1.7706e-54
0.999948
0.999425
0.987962
0.836611
0.273588
0.0119461
0.00286291
0.000578653
0.000165976
5.48895e-05
1.3153e-05
2.55823e-06
1.52853e-07
1.136e-08
6.92742e-10
3.45251e-11
4.22262e-12
2.22377e-13
3.49511e-15
0.999425
0.969978
0.607484
0.0722654
0.0107541
0.00268059
0.000578622
0.000154474
3.0828e-05
1.13245e-05
2.34387e-06
3.16237e-07
3.14806e-08
2.43358e-09
1.51927e-10
9.17634e-12
1.41751e-12
4.00817e-14
6.17494e-16
0.93456
0.547127
0.0495947
0.00936104
0.00243972
0.000716929
0.000155452
3.14652e-05
6.75704e-06
2.24958e-06
4.74454e-07
6.01844e-08
6.02205e-09
5.09019e-10
3.85247e-11
5.96594e-12
3.37521e-13
7.8159e-15
1.08013e-16
0.45831
0.0349968
0.00809741
0.00206365
0.000683832
0.000163234
3.10239e-05
6.22631e-06
1.33121e-06
4.25011e-07
8.90542e-08
1.13983e-08
1.16429e-09
1.08634e-10
1.86791e-11
1.83139e-12
6.2928e-14
1.49247e-15
1.81474e-17
0.0303414
0.00759075
0.0017637
0.000636562
0.000147914
3.10773e-05
6.17642e-06
1.21532e-06
2.51237e-07
7.68341e-08
1.57331e-08
2.02832e-09
2.36131e-10
3.9637e-11
5.52012e-12
2.93668e-13
1.04557e-14
2.53158e-16
3.07563e-18
0.00758824
0.00166058
0.000521738
0.000116366
2.84832e-05
6.06781e-06
1.17182e-06
2.26881e-07
4.58997e-08
1.33957e-08
2.65186e-09
3.94051e-10
6.04241e-11
1.21897e-11
9.42338e-13
4.50739e-14
1.64261e-15
3.99138e-17
4.89735e-19
0.00163418
0.000392344
9.12208e-05
2.28953e-05
5.31615e-06
1.10272e-06
2.1188e-07
4.0919e-08
8.24771e-09
2.30232e-09
5.07977e-10
8.26445e-11
2.01543e-11
2.22021e-12
1.35945e-13
6.67252e-15
2.4223e-16
5.87943e-18
7.23135e-20
0.00024112
6.83462e-05
1.61413e-05
4.03348e-06
1.01146e-06
2.13388e-07
3.89701e-08
7.34332e-09
1.62533e-09
4.84091e-10
1.07032e-10
2.75691e-11
4.04286e-12
3.07202e-13
1.92385e-14
9.35416e-16
3.36786e-17
8.14571e-19
1.00103e-20
5.29098e-05
1.0201e-05
2.70669e-06
7.58694e-07
1.92294e-07
3.93361e-08
7.1153e-09
1.46668e-09
3.63891e-10
1.07923e-10
3.25436e-11
5.79843e-12
5.45291e-13
4.21162e-14
2.59519e-15
1.24331e-16
4.43301e-18
1.06697e-19
1.30753e-21
6.43685e-06
1.63786e-06
4.90097e-07
1.38937e-07
3.45385e-08
6.95633e-09
1.38334e-09
3.39373e-10
1.03833e-10
3.40361e-11
6.85678e-12
7.88921e-13
7.30783e-14
5.52256e-15
3.3305e-16
1.57069e-17
5.54276e-19
1.3268e-20
1.61954e-22
1.01549e-06
2.60439e-07
8.34269e-08
2.40478e-08
5.94186e-09
1.27562e-09
3.32939e-10
9.77689e-11
3.30467e-11
7.32636e-12
9.87611e-13
1.06213e-13
9.43399e-15
6.89786e-16
4.06653e-17
1.88937e-18
6.60142e-20
1.57168e-21
1.90966e-23
1.2619e-07
4.22341e-08
1.38765e-08
4.01587e-09
1.11391e-09
3.03195e-10
8.61244e-11
3.17387e-11
6.8941e-12
1.06599e-12
1.35211e-13
1.40063e-14
1.18644e-15
8.29152e-17
4.75322e-18
2.16854e-19
7.49811e-21
1.77708e-22
2.14867e-24
2.05707e-08
6.32977e-09
2.3838e-09
8.27514e-10
2.56667e-10
7.43785e-11
2.87553e-11
6.70673e-12
1.01675e-12
1.48562e-13
1.81127e-14
1.79134e-15
1.45698e-16
9.80313e-18
5.43585e-19
2.40916e-20
8.20413e-22
1.93356e-23
2.32583e-25
3.09936e-09
1.15129e-09
5.35318e-10
1.84027e-10
6.43684e-11
2.45171e-11
6.27682e-12
9.89523e-13
1.44064e-13
2.0154e-14
2.3412e-15
2.22341e-16
1.74599e-17
1.13977e-18
6.14828e-20
2.66402e-21
8.90981e-23
2.07731e-24
2.48273e-26
4.40985e-10
2.83715e-10
1.17906e-10
5.56541e-11
2.02057e-11
5.33035e-12
9.10703e-13
1.39631e-13
1.97139e-14
2.62103e-15
2.91719e-16
2.67632e-17
2.04008e-18
1.2985e-19
6.85381e-21
2.92016e-22
9.63857e-24
2.2301e-25
2.65154e-27
6.44009e-11
6.66121e-11
4.52628e-11
1.63187e-11
4.22182e-12
7.6016e-13
1.26281e-13
1.89386e-14
2.5671e-15
3.26335e-16
3.50476e-17
3.12321e-18
2.32232e-19
1.44721e-20
7.5029e-22
3.1524e-23
1.03033e-24
2.37337e-26
2.80681e-28
9.49063e-12
2.9617e-11
1.32366e-11
3.11188e-12
5.9057e-13
1.0284e-13
1.67828e-14
2.43072e-15
3.1763e-16
3.89198e-17
4.05764e-18
3.52972e-19
2.57187e-20
1.5751e-21
8.0491e-23
3.34379e-24
1.08451e-25
2.49173e-27
2.92723e-29
1.45458e-12
1.13892e-11
2.35896e-12
4.26784e-13
7.73797e-14
1.32752e-14
2.09841e-15
2.944e-16
3.73728e-17
4.44525e-18
4.52466e-19
3.86067e-20
2.76783e-21
1.67211e-22
8.44901e-24
3.4791e-25
1.1218e-26
2.57568e-28
3.00154e-30
2.09039e-13
2.58267e-12
3.23156e-13
5.3804e-14
9.58802e-15
1.59928e-15
2.45684e-16
3.36609e-17
4.18107e-18
4.8602e-19
4.8567e-20
4.08339e-21
2.89208e-22
1.72933e-23
8.66399e-25
3.54473e-26
1.13825e-27
2.61668e-29
3.02022e-31
2.61608e-14
3.7818e-13
3.91356e-14
6.27597e-15
1.09388e-15
1.7852e-16
2.69215e-17
3.63221e-18
4.4461e-19
5.08447e-20
5.01464e-21
4.17349e-22
2.93118e-23
1.74051e-24
8.66999e-26
3.53189e-27
1.13125e-28
2.60871e-30
2.97739e-32
2.72082e-15
3.29516e-14
4.11373e-15
6.56905e-16
1.13721e-16
1.84277e-17
2.75839e-18
3.69652e-19
4.492e-20
5.08673e-21
4.97808e-22
4.11916e-23
2.87945e-24
1.70317e-25
8.45671e-27
3.43729e-28
1.09982e-29
2.54862e-31
2.87161e-33
2.70843e-16
1.90872e-15
3.69273e-16
6.0977e-17
1.07434e-17
1.75646e-18
2.64022e-19
3.54627e-20
4.31033e-21
4.86487e-22
4.74914e-23
3.92387e-24
2.73996e-25
1.61912e-26
8.03333e-28
3.26407e-29
1.04485e-30
2.43703e-32
2.70646e-34
5.68211e-17
2.14394e-16
2.79161e-17
5.01685e-18
9.21718e-19
1.54489e-19
2.35981e-20
3.20644e-21
3.92758e-22
4.44679e-23
4.35272e-24
3.60609e-25
2.52408e-26
1.49445e-27
7.4266e-29
3.02201e-30
9.69097e-32
2.27838e-33
2.49035e-35
1.5369e-17
2.32006e-17
1.7892e-18
3.67136e-19
7.18939e-20
1.25439e-20
1.97005e-21
2.73294e-22
3.39883e-23
3.88466e-24
3.83213e-25
3.19651e-26
2.25032e-27
1.33867e-28
6.678e-30
2.72608e-31
8.76885e-33
2.08078e-34
2.23557e-36
1.69821e-18
1.2583e-18
9.71544e-20
2.40697e-20
5.11196e-21
9.41604e-22
1.53754e-22
2.1971e-23
2.79441e-24
3.24398e-25
3.24102e-26
2.73284e-27
1.94135e-28
1.16344e-29
5.83864e-31
2.39496e-32
7.73672e-34
1.85507e-35
1.95692e-37
1.12758e-19
5.19118e-20
4.6715e-21
1.42485e-21
3.32722e-22
6.54975e-23
1.12348e-23
1.66769e-24
2.18429e-25
2.5907e-26
2.63396e-27
2.25382e-28
1.62069e-29
9.81008e-31
4.96271e-32
2.04868e-33
6.65382e-35
1.61365e-36
1.6699e-38
4.84483e-21
2.16174e-21
2.11149e-22
7.69087e-23
1.99307e-23
4.23488e-24
7.70111e-25
1.19681e-25
1.62489e-26
1.98006e-27
2.05801e-28
1.79371e-29
1.30962e-30
8.0263e-32
4.10097e-33
1.70627e-34
5.57744e-36
1.36915e-37
1.38904e-39
1.75719e-22
7.51217e-23
9.24974e-24
3.83435e-24
1.10543e-24
2.55438e-25
4.96404e-26
8.1345e-27
1.15183e-27
1.44976e-28
1.54717e-29
1.37842e-30
1.02482e-31
6.37428e-33
3.29556e-34
1.38387e-35
4.55711e-37
1.13305e-38
1.12644e-40
5.99433e-24
2.20757e-24
3.96456e-25
1.78921e-25
5.71064e-26
1.44279e-26
3.01694e-27
5.24688e-28
7.79284e-29
1.01815e-29
1.12027e-30
1.02372e-31
7.77167e-33
4.91669e-34
2.57664e-35
1.09343e-36
3.63052e-38
9.14679e-40
8.90919e-42
1.82417e-25
6.28311e-26
1.63129e-26
7.84955e-27
2.76173e-27
7.65915e-28
1.73365e-28
3.2189e-29
5.04123e-30
6.86896e-31
7.82286e-32
7.35565e-33
5.71679e-34
3.68633e-35
1.96141e-36
8.42167e-38
2.82167e-39
7.20567e-41
6.87629e-43
4.64643e-27
1.77858e-27
6.20828e-28
3.22688e-28
1.25453e-28
3.8338e-29
9.44598e-30
1.88278e-30
3.12471e-31
4.45964e-32
5.27629e-33
5.1202e-34
4.0839e-35
2.68937e-36
1.45504e-37
6.32827e-39
2.14107e-40
5.54281e-42
5.18332e-44
9.88718e-29
4.42678e-29
2.13636e-29
1.23806e-29
5.3612e-30
1.8144e-30
4.89359e-31
1.05265e-31
1.85998e-32
2.792e-33
3.4434e-34
3.45834e-35
2.83727e-36
1.91159e-37
1.05313e-38
4.64423e-40
1.58771e-41
4.16679e-43
3.81984e-45
1.32537e-30
1.03267e-30
6.74427e-31
4.40962e-31
2.15564e-31
8.13718e-32
2.41705e-32
5.64077e-33
1.0659e-33
1.68932e-34
2.17882e-35
2.27068e-36
1.9202e-37
1.32581e-38
7.44707e-40
3.33306e-41
1.15199e-42
3.06444e-44
2.75553e-46
1.93064e-32
2.14239e-32
1.93213e-32
1.40371e-32
8.16438e-33
3.46515e-33
1.14134e-33
2.90532e-34
5.89675e-35
9.90325e-36
1.33972e-36
1.45227e-37
1.26832e-38
8.98809e-40
5.15333e-41
2.34276e-42
8.1899e-44
2.20771e-45
1.94858e-47
2.31099e-34
4.00744e-34
4.7494e-34
4.01872e-34
2.92836e-34
1.40401e-34
5.16716e-35
1.44268e-35
3.15844e-36
5.64019e-37
8.02521e-38
9.06864e-39
8.1935e-40
5.96752e-41
3.49603e-42
1.61551e-43
5.71443e-45
1.56037e-46
1.35302e-48
2.46428e-36
6.69965e-36
1.01426e-35
1.08845e-35
9.68546e-36
5.4282e-36
2.24988e-36
6.92948e-37
1.64317e-37
3.13007e-38
4.69607e-39
5.54277e-40
5.18882e-41
3.88863e-42
2.32982e-43
1.09501e-44
3.92035e-46
1.08381e-47
9.24206e-50
1.96959e-38
9.60534e-38
1.91513e-37
2.81386e-37
2.96063e-37
2.01066e-37
9.45511e-38
3.23105e-38
8.33188e-39
1.69805e-39
2.69235e-40
3.32494e-41
3.22937e-42
2.49281e-43
1.52857e-44
7.31068e-46
2.64978e-47
7.41216e-49
6.22283e-51
1.10044e-40
1.10893e-39
3.35805e-39
6.75366e-39
8.52394e-39
7.15753e-39
3.85053e-39
1.46829e-39
4.13307e-40
9.03612e-41
1.51712e-41
1.96325e-42
1.98055e-43
1.57603e-44
9.89664e-46
4.81852e-47
1.76837e-48
5.0016e-50
4.13913e-52
4.5716e-43
1.05133e-41
5.28781e-41
1.48454e-40
2.38562e-40
2.42997e-40
1.52666e-40
6.53097e-41
2.01377e-41
4.73413e-42
8.43056e-43
1.14456e-43
1.20035e-44
9.85309e-46
6.33901e-47
3.14285e-48
1.16796e-49
3.33744e-51
2.72612e-53
1.14883e-45
7.58453e-44
7.27747e-43
3.02326e-42
6.48308e-42
7.9559e-42
5.92654e-42
2.85787e-42
9.68158e-43
2.45192e-43
4.63704e-44
6.61023e-45
7.21121e-46
6.10851e-47
4.02748e-48
2.03368e-49
7.65305e-51
2.20745e-52
1.68101e-54
1.44249e-48
3.90371e-46
8.5237e-45
5.67999e-44
1.64456e-43
2.26171e-43
1.81408e-43
1.07329e-43
4.17551e-44
1.17792e-44
2.4258e-45
3.69913e-46
4.25627e-47
3.76013e-48
2.54922e-49
1.31119e-50
4.99662e-52
1.45355e-53
1.07993e-55
2.92419e-53
8.00344e-49
5.13624e-47
1.02971e-45
5.78976e-45
2.74673e-44
4.37051e-44
1.69944e-44
4.96805e-45
1.05883e-45
1.66317e-46
1.96697e-47
1.78765e-48
1.2646e-49
8.04958e-51
4.22477e-52
1.6332e-53
4.80026e-55
1.07993e-55
)
;

boundaryField
{
    leftWall
    {
        type            zeroGradient;
    }
    rightWall
    {
        type            zeroGradient;
    }
    lowerWall
    {
        type            zeroGradient;
    }
    atmosphere
    {
        type            inletOutlet;
        inletValue      uniform 0;
        value           nonuniform List<scalar> 
46
(
0
0
0
0
0
0
0
0
0
0
0
0
0
0
0
0
0
0
0
0
0
0
0
0
0
0
0
0
0
5.13624e-47
1.02971e-45
5.78976e-45
2.74673e-44
4.37051e-44
1.69944e-44
4.96805e-45
1.05883e-45
1.66317e-46
1.96697e-47
1.78765e-48
1.2646e-49
8.04958e-51
4.22477e-52
1.6332e-53
4.80026e-55
1.07993e-55
)
;
    }
    defaultFaces
    {
        type            empty;
    }
}


// ************************************************************************* //
