/*--------------------------------*- C++ -*----------------------------------*\
| =========                 |                                                 |
| \\      /  F ield         | OpenFOAM: The Open Source CFD Toolbox           |
|  \\    /   O peration     | Version:  2206                                  |
|   \\  /    A nd           | Website:  www.openfoam.com                      |
|    \\/     M anipulation  |                                                 |
\*---------------------------------------------------------------------------*/
FoamFile
{
    version     2.0;
    format      ascii;
    arch        "LSB;label=32;scalar=64";
    class       volScalarField;
    location    "0.15";
    object      p_rgh;
}
// * * * * * * * * * * * * * * * * * * * * * * * * * * * * * * * * * * * * * //

dimensions      [1 -1 -2 0 0 0 0];

internalField   nonuniform List<scalar> 
2268
(
2463.06
2463.19
2462.81
2462.07
2461.14
2460.05
2458.83
2457.53
2456.21
2454.94
2453.82
2452.95
2452.47
2452.53
2453.27
2454.71
2456.82
2459.56
2462.79
2466.23
2469.47
2472.03
2473.46
2462.69
2462.83
2462.45
2461.71
2460.79
2459.7
2458.47
2457.16
2455.83
2454.54
2453.39
2452.48
2451.91
2451.77
2452.15
2453.27
2455.19
2457.9
2461.29
2465.1
2468.91
2472.13
2474.04
2461.96
2462.12
2461.74
2461
2460.07
2458.98
2457.75
2456.42
2455.07
2453.75
2452.54
2451.54
2450.86
2450.59
2450.87
2451.76
2453.36
2455.68
2458.69
2462.25
2466.03
2469.42
2471.54
2460.85
2461.04
2460.66
2459.92
2458.99
2457.89
2456.64
2455.3
2453.91
2452.53
2451.24
2450.13
2449.28
2448.81
2448.8
2449.36
2450.55
2452.42
2454.89
2457.84
2460.98
2463.83
2465.65
2459.34
2459.57
2459.2
2458.46
2457.52
2456.41
2455.14
2453.77
2452.32
2450.87
2449.47
2448.19
2447.12
2446.35
2445.95
2446
2446.57
2447.67
2449.25
2451.15
2453.07
2454.52
2455.27
2457.43
2457.7
2457.33
2456.59
2455.63
2454.5
2453.21
2451.79
2450.27
2448.71
2447.16
2445.67
2444.3
2443.12
2442.18
2441.53
2441.17
2441.07
2441.13
2441.13
2440.7
2439.35
2436.91
2455.08
2455.41
2455.04
2454.28
2453.31
2452.15
2450.82
2449.33
2447.72
2446.03
2444.27
2442.5
2440.75
2439.04
2437.39
2435.77
2434.1
2432.21
2429.79
2426.3
2420.76
2411.59
2397.5
2452.3
2452.68
2452.32
2451.54
2450.55
2449.36
2447.97
2446.41
2444.69
2442.82
2440.83
2438.72
2436.5
2434.14
2431.59
2428.72
2425.31
2420.94
2414.9
2406.19
2392.32
2372.05
2318.57
-2.40017
-2.43549
-2.758
-3.55335
-4.0418
-1.30892
10.2415
15.8068
10.4237
5.15308
3.39674
2.82625
2.32253
1.95845
1.72631
1.57227
1.47168
1.41073
1.3819
-2.39317
-2.42358
-2.76874
-3.63831
-4.26696
-1.89337
9.12305
15.4649
10.1206
4.79108
3.281
2.78841
2.29915
1.94392
1.71696
1.5659
1.46695
1.40685
1.3784
-2.40377
-2.41923
-2.78955
-3.65752
-4.41179
-1.88139
10.0704
16.312
10.3014
3.77951
3.01336
2.67927
2.23441
1.90826
1.69543
1.55166
1.45658
1.39848
1.37091
-2.43264
-2.40908
-2.77413
-3.6735
-3.97041
9.1741
29.718
36.9039
9.61515
2.07601
2.60025
2.49747
2.13405
1.85439
1.66311
1.53026
1.44097
1.38589
1.35965
-2.47073
-2.37139
-2.70204
-3.42206
19.7451
62.4585
75.9165
35.5027
4.93897
0.834506
2.15944
2.26137
2.00845
1.78644
1.62167
1.50252
1.42058
1.36938
1.34484
-2.51196
-2.30966
-2.52097
46.6219
131.077
147.329
66.8768
4.05473
-0.893743
0.896808
1.86015
2.0062
1.87032
1.70847
1.57282
1.46926
1.39586
1.34922
1.32669
-2.53975
17.402
90.1958
271.8
260.247
133.234
16.3195
0.813705
-0.359072
0.549242
1.51996
1.76464
1.73038
1.62446
1.51839
1.43138
1.36731
1.32573
1.30546
210.493
296.694
410.981
381.54
280.015
64.2649
3.06708
0.337837
-0.474388
0.139997
1.18005
1.55483
1.59614
1.53796
1.46015
1.3898
1.33546
1.29929
1.28143
2447.14
2447.55
2447.22
2446.41
2445.37
2444.1
2442.6
2440.88
2438.92
2436.72
2434.26
2431.51
2428.38
2424.78
2420.5
2415.2
2408.26
2398.61
2383.84
2359.96
2314.69
2230.53
2024.86
2437.5
2437.94
2437.56
2436.66
2435.48
2434.03
2432.26
2430.16
2427.7
2424.81
2421.44
2417.46
2412.72
2406.95
2399.78
2390.6
2378.47
2361.96
2338.85
2305.62
2257.54
2189.85
2105.05
2425.18
2425.59
2425.11
2424.08
2422.73
2421.02
2418.91
2416.35
2413.29
2409.63
2405.27
2400.04
2393.72
2386.01
2376.49
2364.58
2349.5
2330.22
2305.41
2273.32
2232
2177.91
2110.96
2410.15
2410.47
2409.82
2408.64
2407.08
2405.07
2402.55
2399.47
2395.75
2391.29
2385.93
2379.49
2371.73
2362.33
2350.88
2336.85
2319.58
2298.23
2271.79
2239.04
2198.61
2149.1
2090.07
2392.56
2392.71
2391.86
2390.5
2388.71
2386.38
2383.43
2379.82
2375.45
2370.19
2363.9
2356.38
2347.37
2336.58
2323.61
2307.99
2289.16
2266.44
2239.1
2206.26
2167.08
2120.85
2066.65
2372.72
2372.64
2371.58
2370.04
2368
2365.34
2361.97
2357.84
2352.85
2346.87
2339.75
2331.29
2321.24
2309.31
2295.14
2278.3
2258.28
2234.51
2206.37
2173.09
2134.08
2088.51
2035.6
2351.14
2350.79
2349.51
2347.78
2345.49
2342.5
2338.73
2334.12
2328.58
2321.97
2314.14
2304.9
2294.01
2281.19
2266.1
2248.33
2227.41
2202.83
2173.99
2140.14
2100.88
2054.77
2002.22
2328.42
2327.79
2326.33
2324.43
2321.9
2318.59
2314.46
2309.43
2303.41
2296.28
2287.88
2278.03
2266.51
2253.03
2237.27
2218.84
2197.26
2172.02
2142.49
2107.91
2067.8
2020.28
1967.38
2305.06
2304.16
2302.58
2300.54
2297.78
2294.2
2289.76
2284.38
2277.97
2270.43
2261.61
2251.34
2239.41
2225.55
2209.44
2190.7
2168.8
2143.21
2113.11
2077.82
2035.88
1985.98
1929.63
2281.81
2280.59
2278.94
2276.75
2273.79
2269.97
2265.25
2259.58
2252.88
2245.03
2235.93
2225.41
2213.29
2199.34
2183.26
2164.68
2143.1
2117.94
2088.19
2053.21
2010.8
1959.76
1897.35
2259.68
2257.98
2256.32
2253.98
2250.81
2246.75
2241.78
2235.85
2228.88
2220.77
2211.44
2200.75
2188.55
2174.64
2158.79
2140.66
2119.78
2095.66
2067.45
2033.76
1992.96
1946.38
1885.35
2237.92
2235.3
2233.92
2231.41
2227.96
2223.56
2218.2
2211.83
2204.35
2195.68
2185.73
2174.39
2161.46
2146.71
2129.96
2110.74
2088.49
2062.87
2029.21
1960.36
1835.08
1697.3
1622.67
2209.71
2204.01
2203.41
2200.41
2196.21
2190.84
2184.29
2176.5
2163.48
2144.77
2119.45
2087.23
2037.15
1967.96
1879.85
1764.78
1613.46
1429.09
1211.46
959.478
649.903
409.459
315.536
1724.51
1630.44
1641.85
1617.38
1577.87
1527.07
1463.84
1387.86
1301.8
1199.59
1081.68
950.851
806.019
662.516
518.577
386.853
269.513
165.93
82.4697
28.4416
-0.752157
-0.934055
-0.951293
254.865
205.775
208.397
194.072
173.963
149.906
122.606
93.1168
63.1214
38.2801
18.1516
-0.205713
-0.324242
-0.404926
-0.462605
-0.488416
-0.515473
-0.556463
-0.607174
-0.664548
-0.721608
-0.782221
-0.813608
-0.206641
-0.198023
-0.201953
-0.205331
-0.210231
-0.215995
-0.223212
-0.232432
-0.243602
-0.258358
-0.276783
-0.298144
-0.331252
-0.367601
-0.403839
-0.439869
-0.477778
-0.520366
-0.571165
-0.631995
-0.700544
-0.776223
-0.835867
-0.20181
-0.201155
-0.204234
-0.207107
-0.211491
-0.217133
-0.224426
-0.233497
-0.244779
-0.258928
-0.27604
-0.296513
-0.320818
-0.348527
-0.379097
-0.412967
-0.451835
-0.497701
-0.554796
-0.62989
-0.725534
-0.826072
-0.860162
-0.209694
-0.210048
-0.212655
-0.215336
-0.219329
-0.224085
-0.230323
-0.238173
-0.247806
-0.259469
-0.273467
-0.290121
-0.309543
-0.332194
-0.358626
-0.389685
-0.426835
-0.473463
-0.535809
-0.622481
-0.734801
-0.84596
-0.894532
-0.210163
-0.210767
-0.21208
-0.214438
-0.217906
-0.222314
-0.227618
-0.234017
-0.241709
-0.250885
-0.261868
-0.274944
-0.290421
-0.308822
-0.330725
-0.356858
-0.388565
-0.429487
-0.486741
-0.568514
-0.677602
-0.80891
-0.933936
-0.202483
-0.20346
-0.204816
-0.206922
-0.209919
-0.213711
-0.218242
-0.223545
-0.229745
-0.237009
-0.245554
-0.255624
-0.26752
-0.281603
-0.298269
-0.31784
-0.341116
-0.370754
-0.411621
-0.46739
-0.539079
-0.63641
-0.776161
-0.192015
-0.192711
-0.194379
-0.196689
-0.199322
-0.202323
-0.205824
-0.20992
-0.214722
-0.220334
-0.226857
-0.234426
-0.243238
-0.253535
-0.265481
-0.279109
-0.294736
-0.313779
-0.3381
-0.36711
-0.399962
-0.449761
-0.539586
-0.180728
-0.181344
-0.182647
-0.184332
-0.186211
-0.188334
-0.190816
-0.193792
-0.197362
-0.2016
-0.206556
-0.212273
-0.218819
-0.226288
-0.234739
-0.244182
-0.254821
-0.267346
-0.282084
-0.297438
-0.312783
-0.337311
-0.384951
-0.167736
-0.168546
-0.169479
-0.170416
-0.171561
-0.172986
-0.174737
-0.17689
-0.179507
-0.18262
-0.186248
-0.190403
-0.195092
-0.200318
-0.206066
-0.212333
-0.219276
-0.227246
-0.236144
-0.244868
-0.253684
-0.268413
-0.295119
-0.154119
-0.154521
-0.154967
-0.155471
-0.156212
-0.157219
-0.158513
-0.160083
-0.161938
-0.164093
-0.166553
-0.169322
-0.172398
-0.175779
-0.179447
-0.183404
-0.187757
-0.19268
-0.198029
-0.203213
-0.208685
-0.217684
-0.23272
-0.13974
-0.139617
-0.139664
-0.139949
-0.140451
-0.141161
-0.142066
-0.143144
-0.14437
-0.145743
-0.147274
-0.148971
-0.15084
-0.152888
-0.155123
-0.157566
-0.160291
-0.163396
-0.166783
-0.170153
-0.173855
-0.179634
-0.188544
-0.124931
-0.124767
-0.124815
-0.125063
-0.125419
-0.125904
-0.126477
-0.127145
-0.127897
-0.128719
-0.129617
-0.130607
-0.131712
-0.13295
-0.134339
-0.135898
-0.137682
-0.139749
-0.142033
-0.144372
-0.146999
-0.150858
-0.156387
-0.111306
-0.111432
-0.111678
-0.111948
-0.112231
-0.112548
-0.112899
-0.113279
-0.113696
-0.114157
-0.114664
-0.115229
-0.115872
-0.116612
-0.117467
-0.118453
-0.119604
-0.120954
-0.122463
-0.124035
-0.125808
-0.128287
-0.131698
-0.0994983
-0.0997948
-0.100119
-0.100375
-0.100623
-0.100843
-0.101075
-0.101305
-0.101534
-0.101777
-0.102048
-0.102356
-0.102708
-0.103116
-0.103594
-0.104156
-0.104825
-0.105625
-0.106528
-0.107479
-0.108561
-0.11006
-0.112116
-0.088827
-0.0890241
-0.0892151
-0.089372
-0.0895423
-0.0897049
-0.0898654
-0.0900239
-0.0901753
-0.09032
-0.0904643
-0.090616
-0.0907822
-0.0909708
-0.0911915
-0.0914552
-0.0917796
-0.0921836
-0.092652
-0.0931517
-0.0937404
-0.0946012
-0.0958484
-0.0781699
-0.0781939
-0.0782277
-0.0782843
-0.0783575
-0.0784571
-0.0785485
-0.0786378
-0.0787309
-0.0788206
-0.0789006
-0.0789725
-0.0790433
-0.079121
-0.0792135
-0.0793283
-0.0794776
-0.0796769
-0.0799205
-0.0801907
-0.0805307
-0.0810707
-0.0819009
-0.0673392
-0.0672457
-0.0671908
-0.0671822
-0.0671852
-0.0672122
-0.0672449
-0.0672783
-0.0673148
-0.0673532
-0.0673908
-0.0674283
-0.0674702
-0.067522
-0.0675889
-0.0676756
-0.0677901
-0.0679447
-0.0681401
-0.068367
-0.0686575
-0.0691065
-0.0697721
-0.0571651
-0.0570465
-0.0569384
-0.0568642
-0.056803
-0.0567454
-0.0567082
-0.0566855
-0.0566694
-0.0566601
-0.0566625
-0.0566812
-0.0567193
-0.0567784
-0.0568602
-0.0569674
-0.0571065
-0.0572888
-0.0575196
-0.0577939
-0.0581311
-0.0585978
-0.0592188
-0.0484454
-0.0483572
-0.0482302
-0.048112
-0.0480014
-0.0478811
-0.0477678
-0.0476693
-0.0475858
-0.0475193
-0.0474753
-0.0474595
-0.047475
-0.0475227
-0.0476033
-0.0477188
-0.0478742
-0.0480792
-0.0483405
-0.0486545
-0.04903
-0.0495131
-0.0501059
-0.0415671
-0.041476
-0.0413397
-0.0411961
-0.0410473
-0.0408901
-0.0407236
-0.0405592
-0.0404084
-0.040278
-0.0401723
-0.0400952
-0.0400511
-0.0400443
-0.040079
-0.0401588
-0.0402875
-0.0404711
-0.0407139
-0.041011
-0.0413641
-0.041807
-0.0423305
-0.0364892
-0.0363854
-0.03625
-0.0360894
-0.0359006
-0.0356994
-0.0354875
-0.0352711
-0.03506
-0.0348623
-0.0346834
-0.0345273
-0.0343989
-0.0343048
-0.034252
-0.0342468
-0.0342933
-0.0343954
-0.0345548
-0.0347664
-0.0350295
-0.0353691
-0.035771
-0.0328451
-0.0327533
-0.032636
-0.0324784
-0.0322746
-0.0320425
-0.0317935
-0.0315316
-0.0312617
-0.030992
-0.0307307
-0.0304843
-0.030259
-0.0300614
-0.0298983
-0.0297757
-0.0296979
-0.029668
-0.0296881
-0.0297559
-0.0298725
-0.0300569
-0.0302913
-0.0303081
-0.0302298
-0.030113
-0.0299531
-0.029749
-0.0295058
-0.0292303
-0.028928
-0.0286049
-0.0282688
-0.0279281
-0.0275911
-0.0272658
-0.0269599
-0.0266796
-0.0264287
-0.0262097
-0.0260249
-0.0258773
-0.025769
-0.025705
-0.0257002
-0.0257356
-0.0285998
-0.0285364
-0.0284102
-0.0282395
-0.0280228
-0.0277584
-0.0274483
-0.0271017
-0.0267278
-0.0263326
-0.0259202
-0.0254967
-0.025071
-0.0246529
-0.0242496
-0.023865
-0.0235006
-0.0231579
-0.0228403
-0.0225521
-0.0223004
-0.0220958
-0.0219217
-0.0276557
-0.0276098
-0.0274858
-0.0273105
-0.0270712
-0.0267723
-0.0264205
-0.0260264
-0.0255972
-0.0251357
-0.0246437
-0.0241264
-0.0235931
-0.0230539
-0.0225169
-0.0219865
-0.0214653
-0.0209559
-0.0204623
-0.0199899
-0.0195454
-0.019136
-0.0187499
-0.0274431
-0.0274241
-0.0273003
-0.0271169
-0.0268568
-0.0265319
-0.0261508
-0.0257183
-0.025235
-0.0247003
-0.0241176
-0.0234952
-0.022844
-0.0221746
-0.0214947
-0.020809
-0.0201212
-0.0194352
-0.0187562
-0.01809
-0.0174428
-0.0168199
-0.0162168
-0.0274799
-0.0274875
-0.0273719
-0.0272014
-0.0269455
-0.0266142
-0.0262125
-0.0257422
-0.0252025
-0.0245956
-0.023928
-0.02321
-0.0224527
-0.0216654
-0.0208548
-0.0200257
-0.0191825
-0.0183305
-0.0174756
-0.016624
-0.0157819
-0.0149548
-0.0141431
-0.0274155
-0.0277178
-0.0276746
-0.0275565
-0.0273134
-0.0269679
-0.0265302
-0.0260057
-0.0253987
-0.024715
-0.0239624
-0.0231504
-0.0222877
-0.0213822
-0.0204405
-0.0194684
-0.0184719
-0.0174573
-0.0164315
-0.0154015
-0.0143744
-0.0133571
-0.0123554
1350.78
1589.4
1543.2
1117.19
1841.91
1663.23
1505.5
1168.39
1907.34
1646.87
1440.27
1157.6
1935.96
1672.75
1409.07
1030.34
1930.12
1654.73
1309.04
510.139
1903.73
1602.92
785.72
81.8527
1866.08
1463.27
279
12.5664
1819.29
733.691
29.8139
1.46173
1761.47
239.177
4.20527
-1.05476
1141.56
37.2677
-0.632324
-1.3252
426.211
1.46358
-1.22395
-1.20216
194.205
-0.731593
-1.13484
-1.0679
47.9403
-0.932098
-0.967627
-0.951327
3.46168
-0.806847
-0.858313
-0.86086
-0.689883
-0.268766
-0.788732
-0.794155
-0.924361
4.59903
-0.770294
-0.747451
-0.186389
7.48616
-0.798423
-0.716092
1.46176
7.62818
-0.710569
-0.687301
1.42551
5.36941
-0.828838
-0.642788
-1.09194
-0.229261
-0.741537
-0.572335
-0.75197
-0.730403
-0.567429
-0.481197
-0.496496
-0.481681
-0.413418
-0.393938
-0.351726
-0.348032
-0.324842
-0.324187
-0.26348
-0.269665
-0.269334
-0.269967
-0.206508
-0.215929
-0.223926
-0.225852
-0.167472
-0.17692
-0.185995
-0.18911
-0.138812
-0.147307
-0.155379
-0.158639
-0.116648
-0.123686
-0.130378
-0.133465
-0.0988031
-0.104362
-0.109672
-0.112294
-0.0839738
-0.0882575
-0.0923509
-0.0944303
-0.0714036
-0.0746527
-0.0777237
-0.0792702
-0.0606332
-0.0630505
-0.0652727
-0.0663333
-0.051364
-0.0530914
-0.0546071
-0.0552388
-0.0433893
-0.0445117
-0.045427
-0.0456834
-0.036548
-0.0371105
-0.0375014
-0.0374264
-0.0307045
-0.0307269
-0.0306444
-0.030271
-0.0257261
-0.0252209
-0.0247003
-0.0240546
-0.0214722
-0.0204605
-0.0195342
-0.0186392
-0.0178634
-0.0163507
-0.0150357
-0.0139069
-0.0148807
-0.0128432
-0.0111282
-0.00976268
-0.0123652
-0.00981605
-0.0077102
-0.00611312
-0.0101787
-0.00713418
-0.00465544
-0.00284673
581.146
531.966
561.791
469.329
148.635
4.93813
1.25117
0.0832603
-0.252005
0.188725
0.912081
1.28826
1.40155
1.40345
1.36574
1.32055
1.28147
1.25397
1.24001
816.813
679.763
419.388
47.7481
5.49344
1.33066
0.15838
-0.0549553
-0.0985809
0.254585
0.730471
1.03984
1.18566
1.23515
1.23715
1.22038
1.20004
1.18375
1.175
852.274
450.297
39.13
6.83109
1.30431
0.121309
-0.144131
-0.11951
-0.0210294
0.272552
0.613347
0.864589
1.01276
1.08609
1.11426
1.11912
1.11436
1.1079
1.10385
459.117
33.0569
6.48389
1.11272
-0.0218094
-0.319761
-0.260723
-0.136459
0.0169561
0.260283
0.521447
0.730753
0.871905
0.955929
1.00031
1.02058
1.02789
1.02946
1.02938
37.6941
7.06687
0.749007
-0.240688
-0.534681
-0.457019
-0.299419
-0.142122
0.0261766
0.23364
0.445611
0.624146
0.755346
0.842717
0.896379
0.926974
0.94312
0.950883
0.953935
8.99026
0.731379
-0.526798
-0.778375
-0.663939
-0.489861
-0.31239
-0.147038
0.0199772
0.202365
0.381696
0.536789
0.657465
0.74408
0.802356
0.839416
0.861658
0.873927
0.87933
0.956344
-0.765063
-0.989717
-0.865358
-0.676021
-0.488185
-0.313781
-0.151904
0.00740015
0.170729
0.326599
0.463454
0.574131
0.657811
0.717655
0.758343
0.784497
0.799846
0.806907
-0.964746
-1.12
-1.02823
-0.845074
-0.651949
-0.474248
-0.310121
-0.156182
-0.0067803
0.140243
0.278539
0.400864
0.502398
0.582053
0.64151
0.6838
0.712191
0.729474
0.73762
-1.22267
-1.13199
-0.972584
-0.792891
-0.6186
-0.456023
-0.303583
-0.159438
-0.0208967
0.112393
0.23657
0.346916
0.440155
0.515288
0.57313
0.615605
0.644984
0.663312
0.67209
-1.20499
-1.05913
-0.898088
-0.738441
-0.583418
-0.435519
-0.295005
-0.161388
-0.0337065
0.0876022
0.199934
0.300183
0.385845
0.456285
0.511759
0.553449
0.582909
0.601611
0.610679
-1.09542
-0.965879
-0.826708
-0.686439
-0.547829
-0.413633
-0.284848
-0.161822
-0.0446066
0.0659889
0.16806
0.259437
0.338383
0.404053
0.456712
0.496958
0.525855
0.54444
0.553554
-0.988949
-0.877086
-0.760332
-0.636485
-0.512501
-0.390962
-0.273397
-0.160666
-0.0533792
0.0474983
0.140477
0.223953
0.29662
0.357778
0.407394
0.445737
0.473622
0.491731
0.500747
-0.892593
-0.799253
-0.698646
-0.588914
-0.477902
-0.367942
-0.260929
-0.157995
-0.0600298
0.0319587
0.116743
0.193074
0.259929
0.316659
0.363095
0.399395
0.426003
0.443357
0.452165
-0.80935
-0.730917
-0.641679
-0.544034
-0.444312
-0.344889
-0.247697
-0.153962
-0.0646911
0.0191274
0.0964478
0.166246
0.227677
0.280136
0.323404
0.357497
0.382654
0.399132
0.407599
-0.740246
-0.670737
-0.589459
-0.501809
-0.411884
-0.322013
-0.233897
-0.148742
-0.0675548
0.00872896
0.0792002
0.142983
0.199334
0.247709
0.287855
0.319685
0.343293
0.358819
0.366837
-0.683645
-0.617266
-0.541498
-0.461986
-0.380646
-0.299434
-0.219689
-0.142513
-0.0688323
0.000488151
0.064637
0.122849
0.174451
0.218943
0.256039
0.285606
0.307628
0.322159
0.329676
-0.635876
-0.56842
-0.496784
-0.424122
-0.350488
-0.277201
-0.205209
-0.135449
-0.0687389
-0.00586282
0.0524355
0.10547
0.152627
0.19344
0.2276
0.254939
0.275375
0.288899
0.295893
-0.590747
-0.521589
-0.454034
-0.387684
-0.321245
-0.255335
-0.190571
-0.127711
-0.0674775
-0.0105775
0.0422994
0.0905196
0.133516
0.170849
0.202206
0.227383
0.246262
0.258785
0.265253
-0.541702
-0.4742
-0.412082
-0.352226
-0.292785
-0.233865
-0.17588
-0.119454
-0.0652368
-0.0138842
0.0339608
0.0777011
0.11681
0.150866
0.179557
0.202659
0.220029
0.231574
0.237522
-0.484665
-0.424907
-0.370328
-0.317569
-0.265089
-0.21286
-0.161252
-0.110827
-0.0621983
-0.0159925
0.0271784
0.0667499
0.102231
0.133212
0.159381
0.180505
0.196428
0.207029
0.212471
-0.421342
-0.374423
-0.329036
-0.283884
-0.238282
-0.192442
-0.146816
-0.101977
-0.0585367
-0.0171036
0.0217307
0.0574308
0.0895298
0.117633
0.141428
0.16068
0.175223
0.184922
0.189876
-0.358807
-0.32526
-0.289242
-0.251635
-0.212613
-0.172781
-0.132721
-0.0930585
-0.0544191
-0.0174033
0.0174179
0.049531
0.0784852
0.103902
0.125471
0.142959
0.156193
0.165035
0.169524
-0.303452
-0.280147
-0.252189
-0.221385
-0.188387
-0.154071
-0.119124
-0.0842223
-0.0500016
-0.0170566
0.014062
0.0428578
0.0688958
0.0918097
0.111298
0.12713
0.139131
0.147162
0.151213
-0.256948
-0.24035
-0.218654
-0.193568
-0.165867
-0.136491
-0.106172
-0.0756064
-0.0454252
-0.0162115
0.0115023
0.0372376
0.0605766
0.0811657
0.0987161
0.113
0.123844
0.131114
0.134754
-0.217815
-0.20571
-0.188785
-0.168367
-0.145202
-0.120166
-0.0939817
-0.0673254
-0.040811
-0.0150014
0.00959188
0.0325113
0.0533587
0.0717961
0.0875463
0.100388
0.110153
0.11671
0.119967
-0.184462
-0.175612
-0.162379
-0.145757
-0.126427
-0.105159
-0.0826267
-0.0594668
-0.0362613
-0.0135447
0.00819792
0.0285344
0.0470888
0.0635412
0.0776258
0.0891298
0.0978909
0.103784
0.106685
-0.156031
-0.149521
-0.139145
-0.125607
-0.109498
-0.0914745
-0.0721462
-0.0520947
-0.0318612
-0.0119446
0.00720274
0.0251782
0.04163
0.0562566
0.0688054
0.0790727
0.0869035
0.0921789
0.0947514
-0.13187
-0.126987
-0.118791
-0.107743
-0.0943255
-0.0790833
-0.0625515
-0.0452525
-0.027679
-0.0102881
0.00650539
0.0223306
0.0368608
0.049813
0.060949
0.0700759
0.0770469
0.0817502
0.0840194
-0.111289
-0.107555
-0.101016
-0.0919732
-0.0807974
-0.0679315
-0.0538345
-0.0389658
-0.0237657
-0.00864455
0.0060221
0.0198955
0.032674
0.044094
0.053933
0.0620104
0.0681888
0.0723636
0.0743545
-0.0937147
-0.0907911
-0.0855221
-0.0780959
-0.0687881
-0.0579513
-0.0459712
-0.0332437
-0.0201542
-0.00706592
0.0056848
0.0177907
0.028975
0.038995
0.0476455
0.0547594
0.0602091
0.0638972
0.0656336
-0.0786741
-0.0763175
-0.0720294
-0.0659141
-0.0581677
-0.0490655
-0.0389246
-0.0280797
-0.0168622
-0.0055901
0.00543797
0.0159452
0.0256805
0.0344233
0.0419867
0.048218
0.052999
0.05624
0.0577443
-0.0657684
-0.0638075
-0.0602867
-0.0552425
-0.0488072
-0.0411906
-0.0326476
-0.0234556
-0.0138962
-0.00424454
0.0052358
0.0142981
0.0227178
0.0302971
0.0368681
0.0422922
0.0464608
0.0492914
0.0505842
-0.0546495
-0.0529793
-0.0500701
-0.0459096
-0.0405817
-0.0342406
-0.0270866
-0.0193459
-0.0112547
-0.00304925
0.00504049
0.0127976
0.020024
0.0265451
0.0322115
0.036898
0.0405056
0.0429596
0.0440592
-0.045044
-0.0435957
-0.0411823
-0.037759
-0.0333721
-0.0281299
-0.0221859
-0.0157212
-0.00893184
-0.00201834
0.00482163
0.0114003
0.0175456
0.0231051
0.0279469
0.0319593
0.0350525
0.0371604
0.0380835
-0.0367276
-0.0354546
-0.0334499
-0.0306488
-0.0270674
-0.0227766
-0.0178901
-0.0125506
-0.00691821
-0.0011603
0.00455598
0.0100707
0.0152366
0.0199218
0.0240115
0.0274066
0.0300273
0.0318168
0.0325785
-0.0295122
-0.0283828
-0.0267215
-0.0244519
-0.0215659
-0.0181037
-0.0141459
-0.00980222
-0.00520057
-0.000477992
0.00422692
0.00878024
0.0130574
0.0169463
0.0203478
0.0231764
0.0253623
0.0268586
0.0274724
-0.0232387
-0.0222316
-0.0208645
-0.0190556
-0.0167757
-0.0140401
-0.0109021
-0.00744294
-0.00376223
3.06782e-05
0.00382322
0.00750532
0.0109736
0.0141342
0.0169042
0.0192111
0.0209958
0.0222217
0.0227004
-0.0177706
-0.0168709
-0.0157637
-0.0143607
-0.0126145
-0.0105203
-0.00810923
-0.00543879
-0.00258362
0.000371508
0.00333761
0.0062265
0.00895476
0.0114464
0.013634
0.0154586
0.0168718
0.017848
0.0182031
-0.0129907
-0.0121894
-0.0113202
-0.0102809
-0.00900864
-0.00748355
-0.00571981
-0.00375528
-0.00164346
0.000552675
0.0027656
0.00492765
0.00697458
0.00884785
0.0104955
0.011872
0.0129396
0.013684
0.0139262
-0.00879868
-0.00809554
-0.00745144
-0.00674323
-0.00589394
-0.00487509
-0.00368944
-0.00235964
-0.000921223
0.000582293
0.00210339
0.00359413
0.00500902
0.00630662
0.00745014
0.0084072
0.00915052
0.00967779
0.00981883
-0.00510365
-0.0045054
-0.00408865
-0.00368448
-0.00321108
-0.00264141
-0.00197288
-0.00121669
-0.000392881
0.000473037
0.00135281
0.00221788
0.00304115
0.00379797
0.00446638
0.00502698
0.00546277
0.00578354
0.00583673
-0.00181223
-0.00136302
-0.00120123
-0.00107451
-0.000930414
-0.000757516
-0.00055298
-0.000319214
-6.2085e-05
0.000210351
0.000488925
0.000764283
0.00102753
0.00127052
0.00148592
0.00166731
0.00180786
0.00191758
0.00192221
)
;

boundaryField
{
    leftWall
    {
        type            fixedFluxPressure;
        gradient        uniform 0;
        value           nonuniform List<scalar> 
50
(
2463.06
2462.69
2461.96
2460.85
2459.34
2457.43
2455.08
2452.3
2447.14
2437.5
2425.18
2410.15
2392.56
2372.72
2351.14
2328.42
2305.06
2281.81
2259.68
2237.92
2209.71
1724.51
254.865
-0.206641
-0.20181
-0.209694
-0.210163
-0.202483
-0.192015
-0.180728
-0.167736
-0.154119
-0.13974
-0.124931
-0.111306
-0.0994983
-0.088827
-0.0781699
-0.0673392
-0.0571651
-0.0484454
-0.0415671
-0.0364892
-0.0328451
-0.0303081
-0.0285998
-0.0276557
-0.0274431
-0.0274799
-0.0274155
)
;
    }
    rightWall
    {
        type            fixedFluxPressure;
        gradient        uniform 0;
        value           nonuniform List<scalar> 
50
(
1.3819
1.3784
1.37091
1.35965
1.34484
1.32669
1.30546
1.28143
1.24001
1.175
1.10385
1.02938
0.953935
0.87933
0.806907
0.73762
0.67209
0.610679
0.553554
0.500747
0.452165
0.407599
0.366837
0.329676
0.295893
0.265253
0.237522
0.212471
0.189876
0.169524
0.151213
0.134754
0.119967
0.106685
0.0947514
0.0840194
0.0743545
0.0656336
0.0577443
0.0505842
0.0440592
0.0380835
0.0325785
0.0274724
0.0227004
0.0182031
0.0139262
0.00981883
0.00583673
0.00192221
)
;
    }
    lowerWall
    {
        type            fixedFluxPressure;
        gradient        uniform 0;
        value           nonuniform List<scalar> 
62
(
2463.06
2463.19
2462.81
2462.07
2461.14
2460.05
2458.83
2457.53
2456.21
2454.94
2453.82
2452.95
2452.47
2452.53
2453.27
2454.71
2456.82
2459.56
2462.79
2466.23
2469.47
2472.03
2473.46
2473.46
2474.04
2471.54
2465.65
2455.27
2436.91
2397.5
2318.57
1350.78
1589.4
1543.2
1117.19
-2.40017
-2.39317
-2.40377
-2.43264
-2.47073
-2.51196
-2.53975
210.493
-2.40017
-2.43549
-2.758
-3.55335
-4.0418
-1.30892
10.2415
15.8068
10.4237
5.15308
3.39674
2.82625
2.32253
1.95845
1.72631
1.57227
1.47168
1.41073
1.3819
)
;
    }
    atmosphere
    {
        type            totalPressure;
        rho             rho;
        psi             none;
        gamma           1;
        p0              uniform 0;
        value           nonuniform List<scalar> 
46
(
-0.0264512
-0.0281511
-0.0280138
-0.0278277
-0.0275365
-0.0271481
-0.0266682
-0.0261019
-0.0254545
-0.0247314
-0.0239387
-0.0230826
-0.0221695
-0.0212062
-0.0201996
-0.0191568
-0.0180851
-0.0169919
-0.0158847
-0.0147713
-0.0136593
-0.0125564
-0.0114707
-0.00914017
-0.00587682
-0.00324613
-0.00136746
-0.00034727
-3.39667e-06
0
0
0
0
0
0
0
0
0
0
0
0
0
0
0
0
0
)
;
    }
    defaultFaces
    {
        type            empty;
    }
}


// ************************************************************************* //
