/*--------------------------------*- C++ -*----------------------------------*\
| =========                 |                                                 |
| \\      /  F ield         | OpenFOAM: The Open Source CFD Toolbox           |
|  \\    /   O peration     | Version:  2206                                  |
|   \\  /    A nd           | Website:  www.openfoam.com                      |
|    \\/     M anipulation  |                                                 |
\*---------------------------------------------------------------------------*/
FoamFile
{
    version     2.0;
    format      ascii;
    arch        "LSB;label=32;scalar=64";
    class       surfaceScalarField;
    location    "0.05";
    object      alphaPhi0.water;
}
// * * * * * * * * * * * * * * * * * * * * * * * * * * * * * * * * * * * * * //

dimensions      [0 3 -1 0 0 0 0];

oriented        oriented;

internalField   nonuniform List<scalar> 
4432
(
2.85307e-06
-2.85307e-06
5.84503e-06
-2.99185e-06
8.88205e-06
-3.03703e-06
1.20581e-05
-3.17604e-06
1.54402e-05
-3.38209e-06
1.91097e-05
-3.66945e-06
2.31757e-05
-4.06606e-06
2.77946e-05
-4.61893e-06
3.32084e-05
-5.41379e-06
3.97981e-05
-6.58964e-06
4.8409e-05
-8.61081e-06
5.93372e-05
-1.09282e-05
7.50909e-05
-1.65086e-05
5.85903e-05
-1.6074e-05
6.67621e-06
-2.06176e-06
2.64951e-06
2.91528e-07
8.71558e-07
3.63271e-07
1.91726e-07
2.58273e-07
2.92704e-08
6.98679e-08
3.48988e-09
1.11557e-08
5.14594e-10
1.43178e-09
1.72176e-10
1.64968e-10
9.1686e-12
2.84844e-06
-5.70147e-06
5.83325e-06
-5.97658e-06
8.86269e-06
-6.0665e-06
1.20285e-05
-6.34185e-06
1.53963e-05
-6.75e-06
1.90453e-05
-7.31841e-06
2.30811e-05
-8.10173e-06
2.76531e-05
-9.19101e-06
3.29805e-05
-1.07411e-05
3.94447e-05
-1.30538e-05
4.7521e-05
-1.6687e-05
5.76641e-05
-2.10714e-05
6.43633e-05
-3.07066e-05
3.33471e-05
-2.76272e-05
4.96156e-06
-5.374e-06
2.25403e-06
-1.95317e-07
7.52436e-07
4.43446e-07
1.82535e-07
3.56458e-07
3.19771e-08
1.10189e-07
4.01626e-09
2.09696e-08
5.37751e-10
2.91439e-09
1.28492e-10
3.86296e-10
2.37745e-11
2.83103e-06
-8.53251e-06
5.7939e-06
-8.93947e-06
8.79988e-06
-9.07249e-06
1.19373e-05
-9.47925e-06
1.52688e-05
-1.00815e-05
1.88684e-05
-1.0918e-05
2.28339e-05
-1.20672e-05
2.72994e-05
-1.36565e-05
3.24526e-05
-1.58943e-05
3.86101e-05
-1.92113e-05
4.6072e-05
-2.41489e-05
5.58688e-05
-3.08683e-05
5.21338e-05
-4.37057e-05
8.85837e-06
-2.45224e-05
2.85987e-06
-4.31742e-06
1.1026e-06
-1.70728e-07
3.09189e-07
2.31939e-07
4.82651e-08
1.47262e-07
-5.77875e-09
4.18526e-08
-6.49838e-10
5.59584e-09
-1.35661e-11
1.10151e-09
5.67988e-11
2.04088e-10
1.87056e-11
2.80472e-06
-1.13373e-05
5.73513e-06
-1.187e-05
8.70628e-06
-1.20436e-05
1.18018e-05
-1.25747e-05
1.508e-05
-1.33596e-05
1.86078e-05
-1.44458e-05
2.24717e-05
-1.5931e-05
2.67851e-05
-1.79699e-05
3.16985e-05
-2.08077e-05
3.74406e-05
-2.49535e-05
4.41855e-05
-3.08939e-05
5.2765e-05
-3.94478e-05
3.9142e-05
-5.27647e-05
4.50141e-06
-1.88135e-05
1.59811e-06
-3.32493e-06
4.56914e-07
7.38827e-08
1.16829e-07
1.79553e-07
2.3146e-08
5.32841e-08
2.23715e-09
8.9412e-09
-1.59114e-11
2.24976e-09
-5.69498e-12
4.92278e-10
2.74767e-11
1.09704e-10
1.31541e-11
2.76988e-06
-1.41071e-05
5.65784e-06
-1.4758e-05
8.58341e-06
-1.49692e-05
1.16245e-05
-1.56158e-05
1.48338e-05
-1.65689e-05
1.827e-05
-1.7882e-05
2.20059e-05
-1.96669e-05
2.61317e-05
-2.20958e-05
3.0756e-05
-2.54321e-05
3.60214e-05
-3.02188e-05
4.19771e-05
-3.68496e-05
4.90697e-05
-4.65403e-05
2.86727e-05
-5.74461e-05
3.08961e-06
-1.47333e-05
6.90252e-07
-2.12143e-06
1.40254e-07
1.73437e-07
3.66635e-08
1.07753e-07
9.21736e-09
2.76416e-08
9.71813e-10
4.76141e-09
7.02761e-12
9.78457e-10
-8.52566e-12
2.18236e-10
1.32069e-11
5.51597e-11
8.45561e-12
2.72695e-06
-1.68341e-05
5.56326e-06
-1.75943e-05
8.43336e-06
-1.78393e-05
1.14087e-05
-1.85911e-05
1.45356e-05
-1.96958e-05
1.78636e-05
-2.121e-05
2.14507e-05
-2.3254e-05
2.53636e-05
-2.60087e-05
2.96682e-05
-2.97367e-05
3.4435e-05
-3.49856e-05
3.95866e-05
-4.20012e-05
4.53176e-05
-5.22713e-05
2.06604e-05
-5.8793e-05
2.08766e-06
-1.13465e-05
2.70348e-07
-1.0613e-06
3.57798e-08
1.87919e-07
1.03448e-08
5.75811e-08
3.18532e-09
1.26128e-08
4.56642e-10
2.24794e-09
1.19709e-11
4.40807e-10
-4.54843e-12
9.72502e-11
6.47278e-12
2.63144e-11
4.96836e-12
2.67685e-06
-1.95109e-05
5.45324e-06
-2.03708e-05
8.25935e-06
-2.06454e-05
1.11594e-05
-2.14912e-05
1.41929e-05
-2.27294e-05
1.74002e-05
-2.44174e-05
2.08245e-05
-2.66783e-05
2.45099e-05
-2.9694e-05
2.84848e-05
-3.37116e-05
3.27597e-05
-3.92605e-05
3.71282e-05
-4.63698e-05
4.16619e-05
-5.6805e-05
1.46768e-05
-5.83533e-05
1.2745e-06
-8.73477e-06
8.06007e-08
-3.32838e-07
8.72921e-09
1.54234e-07
3.45531e-09
3.0843e-08
1.18793e-09
5.79933e-09
2.01362e-10
1.06907e-09
1.10678e-11
2.06409e-10
-1.44478e-12
4.46518e-11
2.93812e-12
1.19795e-11
2.73527e-12
2.62066e-06
-2.21315e-05
5.32866e-06
-2.30788e-05
8.06344e-06
-2.33802e-05
1.08806e-05
-2.43083e-05
1.38125e-05
-2.56613e-05
1.68905e-05
-2.74954e-05
2.01445e-05
-2.99323e-05
2.35984e-05
-3.31479e-05
2.72553e-05
-3.73685e-05
3.1095e-05
-4.31002e-05
3.46987e-05
-4.99735e-05
3.81907e-05
-6.0297e-05
1.06371e-05
-5.73473e-05
6.78138e-07
-7.01476e-06
1.30031e-08
4.97977e-08
1.4854e-09
1.13792e-07
1.06798e-09
1.75748e-08
3.91886e-10
2.78144e-09
7.6887e-11
4.99837e-10
6.2703e-12
9.50834e-11
-5.18876e-13
2.04183e-11
8.47392e-13
5.44359e-12
1.5202e-12
3.33143e-27
-2.41702e-26
6.94892e-29
-6.83137e-28
3.1375e-30
-1.83359e-29
2.21917e-31
-4.6202e-31
3.65935e-33
-1.06709e-32
8.51943e-35
3.69895e-35
2.75228e-36
2.20678e-36
7.50556e-38
9.35912e-38
1.88396e-39
3.16396e-39
4.20724e-41
9.15404e-41
8.23358e-43
2.30949e-42
1.38611e-44
5.08036e-44
1.95911e-46
9.66339e-46
2.24823e-48
1.56445e-47
1.99283e-50
2.10527e-49
1.25882e-52
2.26214e-51
6.75852e-55
1.82364e-53
1.9316e-55
9.91823e-56
5.2586e-58
2.57453e-25
-1.23432e-24
7.00435e-27
-9.03991e-26
2.50639e-28
-2.42446e-27
1.45448e-29
-5.73564e-29
3.05037e-31
-7.67924e-31
8.07783e-33
1.238e-32
2.52279e-34
7.81498e-34
7.06918e-36
3.37027e-35
1.81029e-37
1.16146e-36
4.1246e-39
3.42545e-38
8.23574e-41
8.80578e-40
1.41467e-42
1.97526e-41
2.04018e-44
3.835e-43
2.38909e-46
6.33894e-45
2.161e-48
8.69919e-47
1.39301e-50
9.53533e-49
5.5732e-53
7.8656e-51
3.14269e-55
4.39559e-53
1.22267e-55
1.04942e-23
-6.72867e-23
2.71976e-25
-5.01637e-24
1.00366e-26
-1.33097e-25
5.35882e-28
-2.95665e-27
1.22147e-29
-3.14376e-29
3.40811e-31
7.94751e-31
1.06876e-32
5.09197e-32
2.99875e-34
2.1585e-33
7.64022e-36
7.3676e-35
1.73135e-37
2.1575e-36
3.43785e-39
5.51325e-38
5.8721e-41
1.22972e-39
8.42055e-43
2.37339e-41
9.80452e-45
3.89911e-43
8.8177e-47
5.33358e-45
6.31896e-49
5.82022e-47
3.07261e-51
4.77e-49
1.84173e-53
2.65943e-51
7.52817e-54
2.89662e-22
-2.23117e-21
7.56567e-24
-1.69839e-22
2.72457e-25
-4.40495e-24
1.28283e-26
-9.06676e-26
3.277e-28
-6.83667e-28
1.00196e-29
3.15033e-29
3.11866e-31
2.03127e-30
8.77055e-33
8.45141e-32
2.22795e-34
2.86108e-33
5.03126e-36
8.33451e-35
9.95267e-38
2.12049e-36
1.69324e-39
4.70969e-38
2.41803e-41
9.06649e-40
3.00596e-43
1.48555e-41
2.99305e-45
2.02265e-43
2.21231e-47
2.1999e-45
1.10315e-49
1.79425e-47
7.30102e-52
1.00603e-49
2.85443e-52
6.02352e-21
-5.10313e-20
1.62733e-22
-3.96447e-21
5.56903e-24
-1.00029e-22
2.37354e-25
-1.88316e-24
6.64924e-27
-7.40154e-27
2.2243e-28
9.49796e-28
6.89966e-30
5.7629e-29
1.9418e-31
2.3493e-30
4.91852e-33
7.88333e-32
1.10682e-34
2.28355e-33
2.18081e-36
5.78272e-35
3.87732e-38
1.28113e-36
5.92865e-40
2.45646e-38
7.48698e-42
4.01113e-40
7.5021e-44
5.43467e-42
5.59365e-46
5.87907e-44
2.85462e-48
4.76998e-46
2.02854e-50
2.69129e-48
7.64965e-51
9.8497e-20
-8.8026e-19
2.80592e-21
-7.00064e-20
8.93028e-23
-1.67271e-21
3.45745e-24
-2.77859e-23
1.14203e-25
2.53755e-26
3.90338e-27
2.23196e-26
1.20969e-28
1.24308e-27
3.40089e-30
4.96057e-29
8.58876e-32
1.64893e-30
1.97495e-33
4.7504e-32
4.11505e-35
1.19877e-33
7.41968e-37
2.64452e-35
1.1357e-38
5.04722e-37
1.43666e-40
8.19579e-39
1.44345e-42
1.10417e-40
1.08099e-44
1.18764e-42
5.61827e-47
9.58261e-45
4.26134e-49
5.38827e-47
1.54854e-49
1.47479e-18
-3.46923e-17
4.01285e-20
-4.3486e-18
1.19709e-21
-3.88668e-20
4.62054e-23
-3.98921e-22
1.63361e-24
2.78855e-24
5.55161e-26
4.08183e-25
1.72071e-27
2.10917e-26
4.82771e-29
8.23838e-28
1.26665e-30
2.71154e-29
3.00945e-32
7.77853e-31
6.26764e-34
1.95215e-32
1.12883e-35
4.28279e-34
1.72613e-37
8.12562e-36
2.1822e-39
1.31157e-37
2.19264e-41
1.75632e-39
1.64408e-43
1.87768e-41
8.58856e-46
1.50599e-43
7.0434e-48
8.40407e-46
2.45012e-48
3.78888e-17
-6.45752e-16
4.99975e-19
-2.36952e-17
1.35657e-20
-5.84459e-19
5.05228e-22
-6.68985e-21
1.82134e-23
6.28448e-23
6.22649e-25
5.53184e-24
1.92821e-26
2.68539e-25
5.4994e-28
1.029e-26
1.47621e-29
3.35924e-28
3.50193e-31
9.57483e-30
7.2735e-33
2.39132e-31
1.30611e-34
5.2163e-33
1.99114e-36
9.84024e-35
2.50994e-38
1.57912e-36
2.51563e-40
2.10225e-38
1.88266e-42
2.2345e-40
9.81602e-45
1.78183e-42
9.20465e-47
9.85557e-45
2.91741e-47
5.36307e-06
-2.74946e-05
1.08777e-05
-2.85935e-05
1.64352e-05
-2.89377e-05
2.21301e-05
-3.00032e-05
2.80091e-05
-3.15404e-05
3.41118e-05
-3.35981e-05
4.04654e-05
-3.6286e-05
4.70706e-05
-3.97531e-05
5.38898e-05
-4.41877e-05
6.06905e-05
-4.9901e-05
6.75885e-05
-5.68715e-05
7.3322e-05
-6.60305e-05
1.48308e-05
-5.28514e-05
4.80878e-07
-3.89961e-06
-1.77356e-08
2.68616e-07
-2.25171e-09
5.7282e-08
1.88218e-10
6.72126e-09
1.24347e-10
8.51603e-10
3.27434e-11
1.28543e-10
4.807e-12
2.24759e-11
2.75203e-13
4.3925e-12
3.30158e-13
1.00172e-12
2.51378e-13
3.8756e-13
5.02958e-06
-3.25242e-05
1.01607e-05
-3.37245e-05
1.53166e-05
-3.40937e-05
2.05568e-05
-3.52433e-05
2.5901e-05
-3.68847e-05
3.13573e-05
-3.90544e-05
3.69135e-05
-4.18422e-05
4.2523e-05
-4.53626e-05
4.80859e-05
-4.97506e-05
5.33878e-05
-5.52029e-05
5.81941e-05
-6.16778e-05
6.18085e-05
-6.9645e-05
6.88184e-06
-4.6779e-05
7.60268e-08
-2.18574e-06
-1.09987e-08
2.29442e-07
-7.41782e-10
3.03777e-08
1.04073e-10
3.14389e-09
4.84287e-11
3.64512e-10
1.28417e-11
4.78825e-11
2.88199e-12
7.2241e-12
5.40832e-13
1.23029e-12
9.297e-14
2.28304e-13
4.62393e-14
3.55203e-14
4.66504e-06
-3.71893e-05
9.38442e-06
-3.84439e-05
1.41135e-05
-3.88228e-05
1.88806e-05
-4.00104e-05
2.36843e-05
-4.16884e-05
2.85104e-05
-4.38805e-05
3.33223e-05
-4.6654e-05
3.80491e-05
-5.00895e-05
4.2571e-05
-5.42725e-05
4.66868e-05
-5.93187e-05
5.01368e-05
-6.51278e-05
5.25013e-05
-7.20095e-05
3.43363e-06
-4.08536e-05
-1.63909e-08
-1.14078e-06
-9.19503e-09
1.64254e-07
-8.58361e-10
1.5186e-08
-5.96817e-11
1.37478e-09
3.92599e-13
1.43371e-10
1.3983e-12
1.66994e-11
4.40929e-13
2.14482e-12
1.14497e-13
3.04235e-13
3.08601e-14
4.91004e-14
8.81353e-15
1.06429e-14
4.28305e-06
-4.14723e-05
8.57952e-06
-4.27403e-05
1.28741e-05
-4.31174e-05
1.71692e-05
-4.43055e-05
2.14484e-05
-4.59677e-05
2.56835e-05
-4.81155e-05
2.98253e-05
-5.07958e-05
3.37951e-05
-5.40593e-05
3.74759e-05
-5.79532e-05
4.06937e-05
-6.25364e-05
4.32406e-05
-6.76748e-05
4.48503e-05
-7.36192e-05
1.43951e-06
-3.5527e-05
-2.83671e-08
-5.16217e-07
-4.55795e-09
1.10086e-07
-4.05619e-10
7.95832e-09
-3.50831e-11
6.28221e-10
-2.2864e-12
5.80658e-11
5.7785e-14
6.00679e-12
7.31053e-14
6.66373e-13
2.51726e-14
8.30412e-14
7.97064e-15
1.1194e-14
2.0515e-15
1.68503e-15
3.89582e-06
-4.53681e-05
7.77171e-06
-4.66163e-05
1.16377e-05
-4.69834e-05
1.54761e-05
-4.81439e-05
1.92609e-05
-4.97525e-05
2.29563e-05
-5.18109e-05
2.6509e-05
-5.43484e-05
2.98427e-05
-5.73931e-05
3.28534e-05
-6.09638e-05
3.54008e-05
-6.50838e-05
3.73341e-05
-6.96082e-05
3.84891e-05
-7.47742e-05
5.39164e-07
-3.08546e-05
-2.79508e-08
-1.55494e-07
-2.69342e-09
6.9119e-08
-2.09517e-10
4.05471e-09
-1.76754e-11
2.85701e-10
-1.43215e-12
2.36029e-11
-7.16514e-14
2.1753e-12
9.55252e-15
2.13156e-13
4.77116e-15
2.41366e-14
1.89842e-15
3.12198e-15
4.54746e-16
2.813e-16
3.51307e-06
-4.88812e-05
6.98068e-06
-5.00839e-05
1.04337e-05
-5.04363e-05
1.38395e-05
-5.15498e-05
1.7167e-05
-5.308e-05
2.03777e-05
-5.50215e-05
2.34191e-05
-5.73899e-05
2.62224e-05
-6.01963e-05
2.87001e-05
-6.34416e-05
3.07429e-05
-6.71266e-05
3.22452e-05
-7.11104e-05
3.3104e-05
-7.5633e-05
3.76694e-07
-2.67553e-05
-2.36467e-08
1.42736e-07
-1.57377e-09
4.02465e-08
-1.06942e-10
2.00562e-09
-8.37622e-12
1.29682e-10
-6.68412e-13
9.64294e-12
-4.07208e-14
7.94759e-13
8.44779e-16
7.30298e-14
1.92991e-15
6.76587e-15
4.27367e-16
8.84804e-16
9.80655e-17
4.03691e-17
3.14208e-06
-5.20233e-05
6.22033e-06
-5.31622e-05
9.28196e-06
-5.3498e-05
1.22843e-05
-5.45521e-05
1.51942e-05
-5.59899e-05
1.79734e-05
-5.78007e-05
2.05736e-05
-5.999e-05
2.29346e-05
-6.25575e-05
2.49854e-05
-6.54923e-05
2.66418e-05
-6.8783e-05
2.78302e-05
-7.22989e-05
2.84818e-05
-7.62847e-05
2.24914e-07
-2.31495e-05
-1.4642e-08
3.35576e-07
-7.52521e-10
2.39667e-08
-4.7915e-11
1.09223e-09
-3.58692e-12
6.36945e-11
-2.69323e-13
4.26877e-12
-1.60055e-14
3.13438e-13
3.21278e-17
2.57832e-14
5.64952e-16
2.22012e-15
9.19899e-17
2.35235e-16
2.25159e-17
6.69198e-18
2.78775e-06
-5.48111e-05
5.49952e-06
-5.58739e-05
8.19471e-06
-5.61931e-05
1.08245e-05
-5.71819e-05
1.33559e-05
-5.85213e-05
1.57529e-05
-6.01976e-05
1.79721e-05
-6.22093e-05
1.99629e-05
-6.45482e-05
2.16676e-05
-6.7197e-05
2.30221e-05
-7.01374e-05
2.39749e-05
-7.32517e-05
2.44766e-05
-7.67865e-05
7.92859e-08
-1.99763e-05
-6.20293e-09
3.91876e-07
-3.10545e-10
1.70241e-08
-2.0086e-11
7.18594e-10
-1.45394e-12
3.76672e-11
-1.00992e-13
2.21071e-12
-5.35444e-15
1.39717e-13
6.53059e-16
9.80388e-15
1.6575e-16
8.06971e-16
1.81951e-17
6.72425e-17
5.57881e-18
1.10882e-18
2.45296e-06
-5.7264e-05
4.82283e-06
-5.82438e-05
7.17765e-06
-5.85479e-05
9.46547e-06
-5.94697e-05
1.16552e-05
-6.0711e-05
1.37137e-05
-6.22561e-05
1.56033e-05
-6.4099e-05
1.72816e-05
-6.62265e-05
1.87024e-05
-6.86179e-05
1.98164e-05
-7.12514e-05
2.05877e-05
-7.40229e-05
2.09778e-05
-7.71765e-05
-5.63826e-09
-1.71871e-05
-2.9506e-09
3.6318e-07
-1.49524e-10
1.3275e-08
-9.39891e-12
5.21602e-10
-6.4231e-13
2.49618e-11
-3.98798e-14
1.29925e-12
-1.90113e-15
7.04224e-14
3.16217e-16
4.16058e-15
4.86014e-17
2.99816e-16
4.03718e-18
2.1269e-17
1.51466e-18
1.53502e-19
2.13894e-06
-5.9403e-05
4.19152e-06
-6.02964e-05
6.23168e-06
-6.05881e-05
8.20663e-06
-6.14447e-05
1.00879e-05
-6.25922e-05
1.18461e-05
-6.40144e-05
1.3449e-05
-6.57018e-05
1.48611e-05
-6.76387e-05
1.60461e-05
-6.98028e-05
1.69656e-05
-7.21709e-05
1.75941e-05
-7.46514e-05
1.79003e-05
-7.74827e-05
-4.28604e-08
-1.47399e-05
-2.65734e-09
3.00337e-07
-1.09084e-10
9.78257e-09
-5.86595e-12
3.70309e-10
-3.50025e-13
1.67532e-11
-1.86762e-14
7.97818e-13
-8.00454e-16
3.77978e-14
1.31416e-16
1.9126e-15
1.49777e-17
1.22516e-16
9.84097e-19
7.3776e-18
4.48621e-19
1.76518e-20
1.84571e-06
-6.12487e-05
3.60451e-06
-6.20552e-05
5.35434e-06
-6.23379e-05
7.04329e-06
-6.31336e-05
8.64576e-06
-6.41947e-05
1.01365e-05
-6.55051e-05
1.14879e-05
-6.70532e-05
1.26711e-05
-6.88218e-05
1.36569e-05
-7.07886e-05
1.44159e-05
-7.29299e-05
1.49309e-05
-7.51664e-05
1.51727e-05
-7.77244e-05
-5.43274e-08
-1.25886e-05
-2.44116e-09
2.30618e-07
-8.83953e-11
7.02381e-09
-4.2014e-12
2.4737e-10
-2.20788e-13
1.07793e-11
-1.03312e-14
4.7872e-13
-4.3733e-16
2.04155e-14
5.38692e-17
9.14719e-16
4.85402e-18
5.21257e-17
2.56882e-19
2.68531e-18
1.40071e-19
-4.14454e-23
1.57257e-06
-6.28213e-05
3.05939e-06
-6.3542e-05
4.54126e-06
-6.38197e-05
5.96863e-06
-6.45609e-05
7.31849e-06
-6.55445e-05
8.56961e-06
-6.67562e-05
9.69876e-06
-6.81823e-05
1.06823e-05
-6.98052e-05
1.14968e-05
-7.16028e-05
1.21181e-05
-7.35512e-05
1.25396e-05
-7.55877e-05
1.27267e-05
-7.79113e-05
-5.34912e-08
-1.07005e-05
-1.80243e-09
1.66081e-07
-6.13017e-11
4.72018e-09
-2.71434e-12
1.66389e-10
-1.32349e-13
6.91633e-12
-5.70574e-15
2.85878e-13
-1.90235e-16
1.10806e-14
2.19088e-17
4.58858e-16
1.50384e-18
2.22732e-17
6.86874e-20
9.85024e-19
4.4054e-20
-1.1963e-21
1.31752e-06
-6.41385e-05
2.55236e-06
-6.47765e-05
3.7864e-06
-6.50534e-05
4.97325e-06
-6.57474e-05
6.09286e-06
-6.66637e-05
7.12735e-06
-6.77904e-05
8.05782e-06
-6.91123e-05
8.86551e-06
-7.06124e-05
9.5311e-06
-7.22677e-05
1.00332e-05
-7.40526e-05
1.03728e-05
-7.59264e-05
1.04819e-05
-7.80188e-05
-4.46236e-08
-9.06083e-06
-9.63112e-10
1.13375e-07
-3.08867e-11
3.31894e-09
-1.36511e-12
1.17483e-10
-6.53231e-14
4.73391e-12
-2.69006e-15
1.84453e-13
-9.39899e-18
6.44231e-15
8.94506e-18
2.42353e-16
4.35026e-19
9.61866e-18
1.79579e-20
3.59546e-19
1.35358e-20
-6.32409e-22
1.07859e-06
-6.52153e-05
2.07822e-06
-6.57743e-05
3.0814e-06
-6.60547e-05
4.04384e-06
-6.67079e-05
4.95036e-06
-6.75681e-05
5.78621e-06
-6.86238e-05
6.53634e-06
-6.98598e-05
7.18609e-06
-7.12592e-05
7.71989e-06
-7.27981e-05
8.12848e-06
-7.44571e-05
8.42344e-06
-7.62166e-05
8.33237e-06
-7.79194e-05
-2.93444e-08
-7.62491e-06
-2.08392e-10
7.70653e-08
-2.59467e-12
2.83648e-09
-1.3077e-13
1.03791e-10
-1.51365e-14
4.09726e-12
-8.24624e-16
1.46122e-13
1.17865e-17
4.57757e-15
3.4629e-18
1.39815e-16
1.30465e-19
4.49811e-18
4.43459e-21
1.34437e-19
4.05017e-21
-2.26549e-22
8.65249e-07
-6.60701e-05
1.63542e-06
-6.65336e-05
2.42073e-06
-6.68289e-05
3.17515e-06
-6.74507e-05
3.88695e-06
-6.82675e-05
4.54294e-06
-6.92664e-05
5.13054e-06
-7.04325e-05
5.63583e-06
-7.17481e-05
6.03601e-06
-7.31801e-05
6.32551e-06
-7.47253e-05
6.58396e-06
-7.64505e-05
5.82841e-06
-7.71213e-05
-4.09363e-08
-6.19013e-06
-9.22272e-11
3.12684e-08
1.09748e-11
2.46456e-09
6.55375e-13
1.00629e-10
1.65992e-14
4.66854e-12
-2.80544e-16
1.77197e-13
3.76672e-18
3.69346e-15
1.39335e-18
8.91611e-17
3.92761e-20
2.16648e-18
1.0023e-21
4.85377e-20
1.10281e-21
-7.12861e-23
6.48888e-07
-6.66585e-05
1.21991e-06
-6.70426e-05
1.82043e-06
-6.73659e-05
2.3911e-06
-6.79551e-05
2.92966e-06
-6.8736e-05
3.42989e-06
-6.96918e-05
3.88515e-06
-7.0807e-05
4.28311e-06
-7.20577e-05
4.59061e-06
-7.33907e-05
4.71106e-06
-7.47355e-05
4.59365e-06
-7.62077e-05
1.9333e-06
-7.42486e-05
-3.97337e-09
-7.6309e-06
-1.41831e-09
3.55723e-09
-2.58531e-11
1.07446e-09
-2.37397e-13
7.31906e-11
-1.00298e-14
4.27169e-12
-1.5783e-15
1.65898e-13
9.50023e-18
2.75539e-15
5.57298e-19
4.06605e-17
7.90157e-21
7.03691e-19
1.56345e-22
1.16685e-20
2.02607e-22
-1.73896e-23
4.82176e-07
-6.68033e-05
8.84315e-07
-6.71012e-05
1.30579e-06
-6.74366e-05
1.71612e-06
-6.80023e-05
2.10506e-06
-6.87451e-05
2.46886e-06
-6.96544e-05
2.80624e-06
-7.07169e-05
3.11699e-06
-7.19089e-05
3.42986e-06
-7.32078e-05
3.62329e-06
-7.43739e-05
3.4197e-06
-7.53856e-05
3.04635e-06
-7.28432e-05
-3.8748e-08
-1.70886e-05
2.44833e-09
-4.14122e-08
2.48823e-10
3.42144e-09
1.39983e-11
3.10499e-10
3.06299e-13
1.79449e-11
3.52978e-16
4.69334e-13
1.76827e-18
3.10594e-15
5.99019e-20
3.9944e-17
9.56707e-22
1.44267e-19
1.0066e-23
1.58396e-21
2.14175e-23
-1.46596e-24
2.64542e-07
-5.23139e-05
4.96175e-07
-5.23937e-05
7.40213e-07
-5.24371e-05
9.71465e-07
-5.2526e-05
1.18525e-06
-5.26228e-05
1.37405e-06
-5.27114e-05
1.5248e-06
-5.27585e-05
1.63664e-06
-5.27121e-05
1.74465e-06
-5.27068e-05
2.31705e-06
-5.1591e-05
3.19037e-06
-5.02075e-05
1.00633e-05
-3.56001e-05
-5.90881e-07
-1.36356e-05
9.55693e-08
-6.51781e-07
1.05393e-08
9.23759e-08
5.94037e-10
1.03152e-08
1.49442e-11
5.91012e-10
1.01589e-13
1.50132e-11
2.3141e-16
1.03625e-13
-5.22222e-20
2.82588e-16
-2.89315e-23
1.35222e-20
-5.12434e-25
1.25919e-22
1.65342e-24
-1.17101e-26
-1.04372e-07
-1.50687e-24
-2.40936e-07
-2.95545e-22
-3.56497e-07
-1.8698e-20
-4.79052e-07
-7.78022e-19
-6.00941e-07
-2.3811e-17
-7.18347e-07
-5.6785e-16
-8.09226e-07
-1.07895e-14
-8.3746e-07
-1.66796e-13
-9.10544e-07
-2.22162e-12
-1.93936e-08
-2.66571e-11
2.11052e-06
-2.78339e-10
1.6071e-06
-2.88745e-09
3.67912e-06
-2.51942e-08
1.30409e-07
-1.34093e-07
3.72441e-08
1.87047e-07
2.72922e-09
4.3788e-08
3.3239e-11
3.24323e-09
-8.98248e-14
4.83036e-11
-2.54056e-16
1.4028e-14
-1.52732e-20
2.87855e-17
-1.91426e-23
1.31799e-21
-2.26039e-25
1.15138e-23
1.46321e-25
-5.86212e-27
-1.77889e-24
-5.12189e-25
-2.28571e-22
-7.02029e-23
-1.42914e-20
-4.72854e-21
-5.81242e-19
-2.1683e-19
-1.71809e-17
-7.44277e-18
-3.88999e-16
-2.02813e-16
-6.91746e-15
-4.41423e-15
-9.71129e-14
-7.93647e-14
-1.02262e-12
-1.33676e-12
-6.72845e-12
-2.14424e-11
4.74649e-13
-2.90572e-10
7.1795e-11
-2.99964e-09
3.00881e-10
-2.56779e-08
7.39557e-08
-5.25845e-08
-2.12862e-08
9.91054e-08
-2.47954e-09
2.03194e-08
-4.40972e-11
6.25345e-10
-1.28154e-14
4.29369e-12
-2.66414e-17
1.23502e-15
-8.87327e-22
2.24471e-18
-3.53444e-24
1.46704e-22
-3.85619e-26
1.09437e-24
1.28387e-26
-9.27122e-28
-5.76252e-25
-6.37788e-26
-6.13513e-23
-1.0212e-23
-4.19224e-21
-6.83109e-22
-1.9626e-19
-3.05292e-20
-6.87943e-18
-1.01781e-18
-1.91402e-16
-2.68686e-17
-4.25008e-15
-5.79857e-16
-7.80716e-14
-1.0326e-14
-1.33221e-12
-1.67398e-13
-2.16408e-11
-2.39094e-12
-3.0331e-10
-2.8462e-11
-3.12936e-09
-3.10914e-10
-2.73948e-08
-1.24351e-09
-6.1862e-08
-2.57979e-09
-1.26919e-08
4.09135e-09
-4.39544e-10
1.68986e-09
-3.53452e-12
9.36921e-11
-1.1015e-15
7.70497e-13
-2.07232e-18
1.85661e-16
-5.8994e-23
1.90583e-19
-4.10492e-25
1.07879e-23
-4.94692e-27
9.33093e-26
1.02861e-27
-1.08858e-28
-6.66014e-26
-2.88541e-27
-9.93556e-24
-4.7086e-25
-6.78722e-22
-3.03425e-23
-3.09645e-20
-1.30287e-21
-1.0534e-18
-4.159e-20
-2.836e-17
-1.0465e-18
-6.16378e-16
-2.17354e-17
-1.09995e-14
-4.1373e-16
-1.74514e-13
-1.0132e-14
-2.4682e-12
-1.65221e-13
-2.97877e-11
-1.74737e-12
-3.30156e-10
-1.48565e-11
-2.14438e-09
-4.82385e-11
-5.42237e-09
-1.88742e-10
-1.65433e-09
1.74748e-10
-8.77427e-11
9.28699e-11
-7.14247e-13
6.57412e-12
-1.77314e-16
6.85936e-14
-2.12688e-19
1.53646e-17
-7.05245e-24
7.2972e-21
-4.65217e-26
8.51606e-25
-5.23508e-28
7.06287e-27
7.47401e-29
-1.06722e-29
-2.91977e-27
-3.48554e-29
-4.73813e-25
-5.62586e-27
-3.10183e-23
-3.56553e-25
-1.34052e-21
-1.50714e-23
-4.30928e-20
-4.72949e-22
-1.09214e-18
-1.16676e-20
-2.28392e-17
-2.36229e-19
-4.35653e-16
-4.14557e-18
-1.04998e-14
-8.80794e-17
-1.73586e-13
-2.00989e-15
-1.89297e-12
-2.30181e-14
-1.6476e-11
-1.95724e-13
-7.52658e-11
-7.07724e-13
-2.60713e-10
-6.43333e-12
-9.18081e-11
2.13045e-12
-6.34513e-12
3.96821e-12
-6.53045e-14
2.93326e-13
-1.5856e-17
4.92466e-15
-7.37732e-21
1.06965e-18
-6.41998e-25
3.57699e-22
-4.42793e-27
5.65421e-26
-4.69616e-29
4.68896e-28
4.86485e-30
-9.05594e-31
-3.49339e-29
-8.53259e-32
-5.64596e-27
-1.37125e-29
-3.54679e-25
-8.7314e-28
-1.49817e-23
-3.73359e-26
-4.70374e-22
-1.18519e-24
-1.16271e-20
-2.95937e-23
-2.35998e-19
-6.04722e-22
-4.15414e-18
-1.03613e-20
-8.78291e-17
-1.64378e-19
-1.9957e-15
-3.26443e-18
-2.37315e-14
-6.65667e-17
-2.09911e-13
-7.6122e-16
-7.6405e-13
-3.73612e-15
-6.13819e-12
-3.66813e-14
-3.9837e-12
-4.67856e-14
-2.90668e-13
8.3899e-14
-5.04092e-15
8.38001e-15
-1.25418e-18
1.08891e-16
-3.44732e-22
3.37594e-20
-4.95593e-26
2.13972e-23
-3.45461e-28
3.51773e-27
-3.61161e-30
2.73001e-29
3.0399e-31
-6.66052e-32
-7.51219e-32
-2.25057e-34
-8.94515e-30
-2.54588e-32
-6.03325e-28
-1.69502e-30
-2.70419e-26
-7.48665e-29
-8.98068e-25
-2.44759e-27
-2.34385e-23
-6.28636e-26
-4.96135e-22
-1.31068e-24
-8.90052e-21
-2.30328e-23
-1.46051e-19
-3.48604e-22
-2.83289e-18
-4.40302e-21
-6.16286e-17
-5.28685e-20
-7.74132e-16
-7.77656e-19
-4.43502e-15
-9.28572e-18
-4.10607e-14
-1.29273e-16
-8.81841e-14
-3.46177e-16
-8.57519e-15
8.57682e-16
-1.26967e-16
1.77994e-16
-3.41942e-20
2.11301e-18
-2.03308e-23
6.11417e-22
-3.25458e-27
1.04887e-24
-2.32194e-29
1.8872e-28
-2.42972e-31
1.46096e-30
1.7351e-32
-4.29132e-33
-1.87819e-34
-5.33715e-37
-2.56665e-32
-7.52458e-35
-1.72522e-30
-5.19058e-33
-7.67373e-29
-2.36967e-31
-2.52855e-27
-8.01867e-30
-6.55512e-26
-2.13745e-28
-1.37949e-24
-4.63477e-27
-2.41998e-23
-8.4034e-26
-3.5951e-22
-1.29416e-24
-4.58502e-21
-1.70739e-23
-5.55423e-20
-2.00635e-22
-7.92093e-19
-1.97399e-21
-1.00938e-17
-1.31016e-20
-2.01301e-16
-8.68674e-20
-1.01393e-15
-4.51815e-19
-1.74492e-16
4.07465e-18
-2.0349e-18
3.2165e-18
-5.86183e-22
5.9121e-20
-1.0031e-24
2.04877e-23
-1.71662e-28
4.30577e-26
-1.29693e-30
8.52695e-30
-1.40183e-32
6.99247e-32
8.60862e-34
-2.41352e-34
-5.1839e-37
-2.61919e-40
-7.55315e-35
-3.97776e-38
-5.24127e-33
-2.87638e-36
-2.40582e-31
-1.37573e-34
-8.20472e-30
-4.89351e-33
-2.20531e-28
-1.37446e-31
-4.83918e-27
-3.16047e-30
-8.87624e-26
-6.09997e-29
-1.3776e-24
-1.00199e-27
-1.83109e-23
-1.41802e-26
-2.20675e-22
-1.76944e-25
-2.58559e-21
-1.82523e-24
-2.7254e-20
-1.50057e-23
-1.19224e-18
-1.26876e-22
-7.04644e-18
-6.02073e-22
-3.06209e-18
1.0044e-21
-5.77464e-20
2.43477e-20
-1.96705e-23
1.28589e-21
-4.16637e-26
5.98783e-25
-7.77327e-30
1.50568e-27
-6.2133e-32
3.22e-31
-6.98953e-34
2.86501e-33
3.71168e-35
-1.18346e-35
-2.59995e-40
-5.57292e-44
-3.99186e-38
-9.02694e-42
-2.90465e-36
-6.93487e-40
-1.40056e-34
-3.53174e-38
-5.02099e-33
-1.33906e-36
-1.4214e-31
-4.01784e-35
-3.29468e-30
-9.90191e-34
-6.41026e-29
-2.05723e-32
-1.06065e-27
-3.65615e-31
-1.49922e-26
-5.586e-30
-1.90208e-25
-7.39274e-29
-2.38504e-24
-8.29338e-28
-3.39968e-23
-8.4737e-27
-6.47033e-22
-7.52195e-26
-7.17317e-21
-5.57023e-25
-2.42467e-20
-2.32245e-24
-1.26586e-21
1.30988e-22
-5.78738e-25
1.72506e-23
-1.4654e-27
1.20577e-26
-3.08278e-31
3.79901e-29
-2.54075e-33
1.01169e-32
-3.02027e-35
1.00078e-34
1.39401e-36
-5.07328e-37
-5.57511e-44
-2.56738e-47
-9.07654e-42
-4.46636e-45
-6.97604e-40
-3.66969e-43
-3.56381e-38
-2.00541e-41
-1.35539e-36
-8.1701e-40
-4.0801e-35
-2.64041e-38
-1.00911e-33
-7.03279e-37
-2.1057e-32
-1.58705e-35
-3.77111e-31
-3.09135e-34
-5.80199e-30
-5.20712e-33
-7.86608e-29
-7.54211e-32
-1.14346e-27
-9.95758e-31
-1.54433e-26
-1.19397e-29
-2.03838e-25
-1.26345e-28
-1.6219e-23
-1.20615e-27
-1.44827e-22
-1.04192e-26
-1.70354e-23
1.71858e-25
-1.16243e-26
1.47226e-25
-3.71207e-29
1.92834e-28
-9.12658e-33
8.0425e-31
-8.81277e-35
2.63903e-34
-1.131e-36
2.97804e-36
4.55359e-38
-1.9089e-38
-2.49394e-47
-4.07384e-52
-4.1369e-45
-7.31307e-50
-3.43036e-43
-6.56055e-48
-1.88819e-41
-3.90988e-46
-7.74942e-40
-1.73982e-44
-2.52435e-38
-6.15797e-43
-6.78465e-37
-1.80378e-41
-1.54409e-35
-4.49203e-40
-3.03683e-34
-9.71731e-39
-5.2164e-33
-1.84802e-37
-7.96845e-32
-3.11641e-36
-1.32925e-30
-4.78326e-35
-2.02897e-29
-6.62349e-34
-3.08008e-28
-8.21631e-33
-3.08596e-26
-8.90772e-32
-3.16427e-25
-7.84483e-31
-1.45479e-25
-1.93854e-30
-1.84828e-28
5.15622e-28
-7.88974e-31
2.27132e-30
-2.34858e-34
1.34435e-32
-2.59095e-36
5.71305e-36
-3.6607e-38
7.58496e-38
1.29523e-39
-6.29874e-40
-4.05042e-52
-1.53825e-55
-7.34916e-50
-3.05986e-53
-6.63397e-48
-3.02484e-51
-3.9784e-46
-1.98794e-49
-1.78163e-44
-9.76777e-48
-6.34738e-43
-3.82544e-46
-1.87203e-41
-1.24358e-44
-4.69577e-40
-3.45028e-43
-1.02278e-38
-8.34813e-42
-1.96056e-37
-1.78794e-40
-3.35139e-36
-3.42025e-39
-6.02069e-35
-5.98105e-38
-1.05057e-33
-9.57151e-37
-1.72123e-32
-1.39303e-35
-2.77566e-31
-1.82032e-34
-3.8607e-29
-2.09286e-33
-4.98162e-28
-2.27492e-32
-2.14481e-30
1.26303e-30
-1.3226e-32
1.82266e-32
-4.97916e-36
1.73879e-34
-6.45199e-38
1.00997e-37
-1.02761e-39
1.63901e-39
3.15441e-41
-1.82526e-41
-1.53629e-55
-3.95154e-60
-3.07406e-53
-8.77945e-58
-3.05462e-51
-9.6774e-56
-2.01781e-49
-7.09477e-54
-9.96573e-48
-3.89293e-52
-3.92372e-46
-1.70582e-50
-1.2824e-44
-6.22005e-49
-3.57793e-43
-1.94234e-47
-8.70383e-42
-5.30927e-46
-1.87451e-40
-1.29103e-44
-3.61544e-39
-2.82246e-43
-7.00866e-38
-5.65094e-42
-1.39046e-36
-1.0485e-40
-2.60159e-35
-1.78771e-39
-4.81713e-34
-2.79584e-38
-8.56681e-32
-4.27358e-37
-1.27658e-30
-6.26587e-36
-1.72944e-32
1.21761e-34
-1.71295e-34
8.36676e-35
-8.59038e-38
1.72891e-36
-1.3515e-39
1.39775e-39
-2.47816e-41
2.93517e-41
6.52323e-43
-4.63591e-43
-3.94922e-60
-9.47406e-66
-8.81594e-58
-2.37893e-63
-9.76088e-56
-2.96104e-61
-7.18884e-54
-2.45227e-59
-3.96299e-52
-1.5215e-57
-1.7447e-50
-7.55029e-56
-6.392e-49
-3.12455e-54
-2.00553e-47
-1.11037e-52
-5.50715e-46
-3.465e-51
-1.34535e-44
-9.65766e-50
-2.95713e-43
-2.4329e-48
-6.09213e-42
-5.63159e-47
-1.38064e-40
-1.2108e-45
-2.95456e-39
-2.42316e-44
-6.67684e-38
-4.48004e-43
-1.33091e-35
-7.47044e-42
-2.0308e-34
-1.03198e-40
-8.16213e-35
-9.11702e-40
-1.7019e-36
1.45707e-37
-1.21023e-39
1.32724e-38
-2.39214e-41
1.61827e-41
-5.1644e-43
4.44592e-43
1.18059e-44
-1.03482e-44
-9.47527e-66
-9.94153e-70
-2.38895e-63
-2.86049e-67
-2.98586e-61
-4.07885e-65
-2.48321e-59
-3.87073e-63
-1.54723e-57
-2.75397e-61
-7.71089e-56
-1.56916e-59
-3.20483e-54
-7.4692e-58
-1.14391e-52
-3.05998e-56
-3.58493e-51
-1.10362e-54
-1.00394e-49
-3.56763e-53
-2.54329e-48
-1.04701e-51
-5.92673e-47
-2.83155e-50
-1.4327e-45
-7.11642e-49
-3.56999e-44
-1.682e-47
-8.61036e-43
-3.70546e-46
-2.01469e-41
-7.49508e-45
-6.51184e-39
-1.32315e-43
-1.53244e-37
-2.93067e-42
-1.30233e-38
1.31082e-40
-1.43137e-41
6.81545e-41
-3.68412e-43
1.47321e-43
-9.5781e-45
5.5955e-45
1.86474e-46
-2.05034e-46
-9.93999e-70
-1.31353e-75
-2.86915e-67
-4.40336e-73
-4.1055e-65
-7.31725e-71
-3.90955e-63
-8.09391e-69
-2.7912e-61
-6.71672e-67
-1.59583e-59
-4.46845e-65
-7.62197e-58
-2.48712e-63
-3.13307e-56
-1.1937e-61
-1.13367e-54
-5.05474e-60
-3.67664e-53
-1.92353e-58
-1.08382e-51
-6.67301e-57
-2.94018e-50
-2.13737e-55
-7.46222e-49
-6.38413e-54
-2.16353e-47
-1.79209e-52
-6.07707e-46
-4.74513e-51
-1.66327e-44
-1.16693e-49
-7.11889e-42
-2.56651e-48
-1.96865e-40
-4.5153e-47
-6.60427e-41
-6.80885e-47
-1.32626e-43
1.55277e-43
-4.67254e-45
1.0634e-45
-1.51544e-46
5.92828e-47
2.61449e-48
-3.59242e-48
-1.31374e-75
-1.20996e-79
-4.41789e-73
-4.8324e-77
-7.36487e-71
-9.56885e-75
-8.17297e-69
-1.26155e-72
-6.80467e-67
-1.24852e-70
-4.54215e-65
-9.91489e-69
-2.53682e-63
-6.59571e-67
-1.22184e-61
-3.78933e-65
-5.19271e-60
-1.92417e-63
-1.9832e-58
-8.7964e-62
-6.91047e-57
-3.67591e-60
-2.22369e-55
-1.42153e-58
-6.67899e-54
-5.13801e-57
-1.98488e-52
-1.74915e-55
-6.58976e-51
-5.6334e-54
-2.14935e-49
-1.7053e-52
-6.93048e-48
-4.70439e-51
-4.22833e-45
-1.07626e-49
-1.41437e-43
-2.08597e-48
-9.75705e-46
3.7247e-46
-4.967e-47
6.10795e-48
-2.07447e-48
5.35882e-49
3.19163e-50
-5.65932e-50
-1.21019e-79
-3.86595e-84
-4.84565e-77
-1.89711e-81
-9.6202e-75
-4.61679e-79
-1.27166e-72
-7.48222e-77
-1.26187e-70
-9.10743e-75
-1.00475e-68
-8.90224e-73
-6.70184e-67
-7.29679e-71
-3.86066e-65
-5.17171e-69
-1.96571e-63
-3.24445e-67
-9.0111e-62
-1.83538e-65
-3.77651e-60
-9.50806e-64
-1.46501e-58
-4.56711e-62
-5.31425e-57
-2.05517e-60
-1.81843e-55
-8.73059e-59
-6.50369e-54
-3.51382e-57