/*--------------------------------*- C++ -*----------------------------------*\
| =========                 |                                                 |
| \\      /  F ield         | OpenFOAM: The Open Source CFD Toolbox           |
|  \\    /   O peration     | Version:  2206                                  |
|   \\  /    A nd           | Website:  www.openfoam.com                      |
|    \\/     M anipulation  |                                                 |
\*---------------------------------------------------------------------------*/
FoamFile
{
    version     2.0;
    format      ascii;
    arch        "LSB;label=32;scalar=64";
    class       surfaceScalarField;
    location    "0.15";
    object      alphaPhi0.water;
}
// * * * * * * * * * * * * * * * * * * * * * * * * * * * * * * * * * * * * * //

dimensions      [0 3 -1 0 0 0 0];

oriented        oriented;

internalField   nonuniform List<scalar> 
4432
(
4.37445e-06
-4.37445e-06
1.12076e-05
-6.83313e-06
1.79597e-05
-6.75215e-06
2.43772e-05
-6.4175e-06
3.07467e-05
-6.36947e-06
3.72758e-05
-6.52913e-06
4.40636e-05
-6.78775e-06
5.11477e-05
-7.08409e-06
5.85445e-05
-7.39685e-06
6.62526e-05
-7.70802e-06
7.42492e-05
-7.99663e-06
8.24821e-05
-8.23286e-06
9.08275e-05
-8.34543e-06
9.90345e-05
-8.20701e-06
0.000106702
-7.66708e-06
0.000113255
-6.55374e-06
0.000117723
-4.46723e-06
0.000117951
-2.28418e-07
0.000109318
8.62807e-06
8.56857e-05
2.3626e-05
4.62244e-05
3.9455e-05
4.97587e-06
3.96544e-05
3.51405e-06
4.40988e-06
-8.78432e-06
1.12235e-05
-1.36467e-05
1.79773e-05
-1.3506e-05
2.44064e-05
-1.28466e-05
3.0782e-05
-1.27451e-05
3.73171e-05
-1.30643e-05
4.41117e-05
-1.35824e-05
5.12039e-05
-1.41763e-05
5.8612e-05
-1.48049e-05
6.63353e-05
-1.54313e-05
7.43497e-05
-1.6011e-05
8.26111e-05
-1.64943e-05
9.10181e-05
-1.67525e-05
9.93457e-05
-1.65345e-05
0.000107208
-1.55292e-05
0.00011403
-1.33762e-05
0.000119012
-9.44892e-06
0.000121385
-2.60155e-06
0.000120548
9.46547e-06
0.000113201
3.09426e-05
9.03608e-05
6.22814e-05
4.49173e-05
8.50835e-05
4.21445e-05
4.43415e-06
-1.32185e-05
1.12043e-05
-2.04169e-05
1.79136e-05
-2.02152e-05
2.43129e-05
-1.9246e-05
3.06653e-05
-1.90974e-05
3.71816e-05
-1.95806e-05
4.39605e-05
-2.03613e-05
5.10401e-05
-2.12559e-05
5.84414e-05
-2.22063e-05
6.61669e-05
-2.31568e-05
7.41989e-05
-2.40429e-05
8.25084e-05
-2.48038e-05
9.10153e-05
-2.52594e-05
9.95221e-05
-2.50414e-05
0.000107691
-2.36979e-05
0.000115021
-2.07061e-05
0.000120775
-1.52029e-05
0.000123625
-5.45231e-06
0.000121799
1.12919e-05
0.000114012
3.87304e-05
9.75689e-05
7.87053e-05
6.05568e-05
0.000122081
9.68783e-05
4.46389e-06
-1.76823e-05
1.11836e-05
-2.71366e-05
1.7828e-05
-2.68596e-05
2.41799e-05
-2.55979e-05
3.05001e-05
-2.54176e-05
3.69936e-05
-2.60741e-05
4.3755e-05
-2.71227e-05
5.08227e-05
-2.83235e-05
5.82215e-05
-2.96052e-05
6.59598e-05
-3.08951e-05
7.40326e-05
-3.21157e-05
8.24303e-05
-3.32015e-05
9.10919e-05
-3.3921e-05
9.98582e-05
-3.38078e-05
0.000108477
-3.23166e-05
0.000116555
-2.87839e-05
0.00012339
-2.20379e-05
0.000127805
-9.86791e-06
0.000127634
1.14628e-05
0.000119684
4.66813e-05
0.00010103
9.73561e-05
6.47639e-05
0.000158342
0.00016392
4.49967e-06
-2.2182e-05
1.11599e-05
-3.37968e-05
1.77211e-05
-3.34209e-05
2.40106e-05
-3.18873e-05
3.02917e-05
-3.16987e-05
3.67602e-05
-3.25426e-05
4.35039e-05
-3.38665e-05
5.05614e-05
-3.5381e-05
5.79627e-05
-3.70065e-05
6.57237e-05
-3.8656e-05
7.38568e-05
-4.02488e-05
8.23732e-05
-4.17179e-05
9.12283e-05
-4.27761e-05
0.000100316
-4.28958e-05
0.000109507
-4.15068e-05
0.000118523
-3.78008e-05
0.000126731
-3.02458e-05
0.000133099
-1.62356e-05
0.00013588
8.6815e-06
0.000131244
5.13145e-05
0.000110836
0.000117701
7.15155e-05
0.000197646
0.000245435
4.54623e-06
-2.67282e-05
1.11339e-05
-4.03845e-05
1.75922e-05
-3.98792e-05
2.3806e-05
-3.81011e-05
3.00422e-05
-3.79349e-05
3.64825e-05
-3.89828e-05
4.32054e-05
-4.05894e-05
5.02492e-05
-4.24248e-05
5.76498e-05
-4.44072e-05
6.54322e-05
-4.64384e-05
7.36298e-05
-4.84464e-05
8.22731e-05
-5.03612e-05
9.13309e-05
-5.18339e-05
0.000100764
-5.23293e-05
0.000110588
-5.13309e-05
0.000120651
-4.78632e-05
0.000130406
-4.00005e-05
0.000139202
-2.50322e-05
0.000146302
1.5814e-06
0.000147644
4.91222e-05
0.000127305
0.000137959
8.17003e-05
0.000242971
0.000326711
4.60538e-06
-3.13336e-05
1.1099e-05
-4.68781e-05
1.74329e-05
-4.62131e-05
2.35577e-05
-4.42259e-05
2.97401e-05
-4.41173e-05
3.61426e-05
-4.53854e-05
4.28334e-05
-4.72802e-05
4.98512e-05
-4.94426e-05
5.7238e-05
-5.1794e-05
6.50297e-05
-5.42301e-05
7.3282e-05
-5.66987e-05
8.20424e-05
-5.91215e-05
9.13002e-05
-6.10917e-05
0.000101096
-6.21249e-05
0.000111584
-6.18189e-05
0.000122742
-5.90213e-05
0.000134185
-5.14439e-05
0.000145871
-3.67185e-05
0.000158232
-1.07804e-05
0.000164053
3.77787e-05
0.000141625
0.000138914
8.9587e-05
0.000291827
0.000413216
4.66981e-06
-3.60034e-05
1.10389e-05
-5.32472e-05
1.72339e-05
-5.24081e-05
2.3258e-05
-5.025e-05
2.93731e-05
-5.02324e-05
3.5723e-05
-5.17353e-05
4.23653e-05
-5.39225e-05
4.93406e-05
-5.64178e-05
5.66979e-05
-5.91513e-05
6.4485e-05
-6.20172e-05
7.27776e-05
-6.49913e-05
8.1637e-05
-6.79809e-05
9.10891e-05
-7.05438e-05
0.000101262
-7.22974e-05
0.000112401
-7.29587e-05
0.000124638
-7.12578e-05
0.00013788
-6.46873e-05
0.000152275
-5.11281e-05
0.00016779
-2.63618e-05
0.00015429
2.05288e-05
0.000110712
6.89569e-05
8.12858e-05
0.0002609
0.000488587
-1.7873e-22
3.71438e-22
-5.93859e-23
5.63075e-23
-6.69752e-24
4.18395e-24
-3.42923e-25
-2.50897e-25
-1.08753e-26
-5.27773e-26
-4.14457e-28
-2.58218e-27
-1.67695e-29
-1.27029e-28
-6.03682e-31
-6.20437e-30
-1.8176e-32
-2.60259e-31
-4.56364e-34
-8.87908e-33
-9.49203e-36
-2.48846e-34
-1.60388e-37
-5.7331e-36
-2.16113e-39
-1.05504e-37
-2.24142e-41
-1.54306e-39
-1.60226e-43
-1.86186e-41
-7.62438e-46
-1.46317e-43
-1.21909e-48
-7.57955e-46
-1.55153e-49
-1.158e-48
-1.55612e-49
-1.03558e-20
2.96739e-20
-7.90472e-21
1.72174e-20
-1.29578e-21
1.88482e-21
-5.29182e-23
-1.96096e-22
-1.12575e-24
-2.06691e-23
-3.17646e-26
-5.44415e-25
-1.02339e-27
-1.71689e-26
-3.13918e-29
-6.16053e-28
-8.37905e-31
-2.14098e-29
-1.87087e-32
-6.54353e-31
-3.37368e-34
-1.69298e-32
-4.66606e-36
-3.62154e-34
-4.27554e-38
-6.31033e-36
-1.57828e-40
-8.5022e-38
1.639e-42
-8.20342e-40
2.64699e-44
-4.39888e-42
1.02193e-46
-1.15559e-44
3.82922e-49
4.35991e-48
1.79468e-49
-4.88901e-19
1.3913e-18
-5.6888e-19
1.11506e-18
-2.22326e-19
2.39463e-19
-5.30018e-21
-1.99392e-19
-6.70283e-23
-5.12151e-21
-1.31328e-24
-5.94277e-23
-3.16484e-26
-1.16965e-24
-7.95488e-28
-2.94033e-26
-1.87719e-29
-7.95343e-28
-3.86884e-31
-2.08374e-29
-6.57019e-33
-4.89449e-31
-8.60554e-35
-9.739e-33
-7.57476e-37
-1.56898e-34
-2.96807e-39
-1.82186e-36
1.91983e-41
-1.5247e-38
2.97628e-43
-7.97745e-41
1.22316e-45
-1.57677e-43
8.14534e-48
4.22169e-46
2.20678e-47
-9.01875e-18
2.09281e-17
-7.95654e-17
8.80803e-17
-2.21897e-17
3.48542e-17
-2.54368e-19
-1.7909e-17
-2.33902e-21
-2.17085e-19
-3.73193e-23
-2.27143e-21
-7.19232e-25
-4.36358e-23
-1.47129e-26
-9.36712e-25
-2.98327e-28
-2.06575e-26
-5.49311e-30
-4.54629e-28
-8.48611e-32
-9.32977e-30
-9.97051e-34
-1.64217e-31
-7.76393e-36
-2.35825e-33
-1.77775e-38
-2.74836e-35
3.77361e-40
-2.34801e-37
5.01084e-42
-1.24731e-39
2.0201e-44
-1.6711e-42
1.94327e-46
1.04994e-44
8.33876e-46
-7.74657e-16
1.18902e-15
-2.49735e-15
4.74995e-15
-2.56267e-16
4.51606e-16
-3.04019e-18
-8.61611e-17
-3.4545e-20
-1.82156e-18
-6.11517e-22
-3.04554e-20
-1.12982e-23
-7.71188e-22
-2.0499e-25
-1.67802e-23
-3.54924e-27
-3.37077e-25
-5.68414e-29
-6.65174e-27
-7.68668e-31
-1.22222e-28
-7.9221e-33
-2.02115e-30
-4.91224e-35
-2.90953e-32
1.39559e-37
-3.45814e-34
7.57744e-39
-2.98138e-36
7.53981e-41
-1.47749e-38
2.54596e-43
-7.522e-42
3.60222e-45
1.46148e-43
1.94522e-44
-2.86839e-14
3.37938e-14
-1.35696e-14
3.06291e-14
-5.92688e-16
-1.34566e-16
-1.32014e-17
-1.1363e-16
-2.76858e-19
-1.04824e-17
-5.82996e-21
-3.38187e-19
-1.12114e-22
-8.58137e-21
-1.92916e-24
-1.90129e-22
-3.08165e-26
-3.52372e-24
-4.47493e-28
-6.24984e-26
-5.65452e-30
-1.10561e-27
-5.33588e-32
-1.89332e-29
-1.38043e-34
-2.90437e-31
5.41991e-36
-3.5326e-33
1.06193e-37
-3.03414e-35
8.82467e-40
-1.37709e-37
2.84281e-42
7.3967e-41
5.29801e-44
2.14208e-42
3.25163e-43
-6.5805e-14
1.24345e-13
-1.13268e-14
5.32492e-14
-6.33113e-16
-6.24717e-16
-4.13677e-17
-1.07522e-16
-2.05908e-18
-3.77637e-17
-4.10593e-20
-4.12759e-18
-8.09015e-22
-6.96852e-20
-1.43856e-23
-1.83197e-21
-2.16218e-25
-4.77145e-23
-2.87734e-27
-8.24712e-25
-3.19454e-29
-1.20271e-26
-1.95382e-31
-1.6605e-28
2.01858e-33
-2.10174e-30
7.98708e-35
-2.23674e-32
1.14507e-36
-1.72322e-34
8.5105e-39
-6.65678e-37
2.70906e-41
1.99365e-39
6.20608e-43
2.5428e-41
4.16754e-42
-3.54027e-14
1.70445e-13
-8.7669e-15
2.952e-14
-7.61045e-16
-8.74904e-15
-7.3939e-17
-6.98499e-16
-1.08898e-17
-2.78259e-17
-2.22314e-19
-2.13813e-17
-4.86271e-21
-3.0583e-19
-1.06787e-22
-1.07294e-20
-1.6861e-24
-5.55727e-22
-2.0563e-26
-1.60165e-23
-1.6062e-28
-3.38891e-25
3.04247e-31
-5.96294e-27
3.78393e-32
-8.44975e-29
7.72942e-34
-8.76821e-31
9.13421e-36
-5.79259e-33
6.25814e-38
-1.4851e-35
1.94581e-40
2.40897e-38
6.0133e-42
2.13896e-40
4.31234e-41
9.97164e-06
-4.59751e-05
2.32202e-05
-6.64958e-05
3.58389e-05
-6.50267e-05
4.82313e-05
-6.26425e-05
6.09569e-05
-6.29579e-05
7.42194e-05
-6.49979e-05
8.81119e-05
-6.78151e-05
0.00010273
-7.10356e-05
0.000118203
-7.46249e-05
0.000134671
-7.84845e-05
0.000152342
-8.26631e-05
0.000171383
-8.70215e-05
0.000192001
-9.11615e-05
0.000214673
-9.49698e-05
0.000239907
-9.81924e-05
0.000268416
-9.97675e-05
0.00030115
-9.74434e-05
0.000328995
-7.9453e-05
0.000250806
-3.15423e-05
7.27242e-05
3.87969e-06
4.9268e-05
9.83093e-06
9.97841e-05
5.2503e-05
0.000452789
0.000103745
1.00737e-05
-5.60487e-05
2.26227e-05
-7.90448e-05
3.44921e-05
-7.68961e-05
4.63128e-05
-7.44632e-05
5.85848e-05
-7.52299e-05
7.14324e-05
-7.78455e-05
8.49187e-05
-8.13013e-05
9.91528e-05
-8.52696e-05
0.000114297
-8.97691e-05
0.000130531
-9.47187e-05
0.00014811
-0.000100242
0.00016725
-0.000106161
0.000188334
-0.000112246
0.000211917
-0.000118553
0.000238479
-0.000124754
0.00026792
-0.000129218
0.000281638
-0.000111473
0.00014188
-4.92773e-05
8.71301e-06
-6.02387e-06
1.06084e-05
1.18029e-07
1.60279e-05
2.48504e-06
4.47927e-05
1.93683e-05
0.000325063
0.000103215
1.00847e-05
-6.61334e-05
2.18026e-05
-9.07628e-05
3.28179e-05
-8.79114e-05
4.39906e-05
-8.56359e-05
5.5706e-05
-8.69453e-05
6.80008e-05
-9.01403e-05
8.09226e-05
-9.42232e-05
9.45967e-05
-9.89437e-05
0.000109212
-0.000104385
0.000124967
-0.000110473
0.000142133
-0.000117408
0.000161004
-0.000125033
0.000181981
-0.000133222
0.000205336
-0.000141908
0.00023157
-0.000150989
0.000243291
-0.000141074
0.000107532
-7.38126e-05
7.98539e-06
-8.69157e-06
1.69157e-06
-5.74534e-07
1.52016e-06
2.94281e-08
3.15252e-06
4.24112e-07
1.73765e-05
3.89491e-06
6.88104e-05
5.75674e-05
9.96784e-06
-7.61013e-05
2.07351e-05
-0.00010153
3.08403e-05
-9.80166e-05
4.12963e-05
-9.60919e-05
5.23424e-05
-9.79914e-05
6.39399e-05
-0.000101738
7.61343e-05
-0.000106418
8.90664e-05
-0.000111876
0.000102943
-0.000118261
0.000117948
-0.000125478
0.000134385
-0.000133845
0.000152605
-0.000143253
0.000172694
-0.000153311
0.000194769
-0.000163983
0.000214633
-0.000170861
0.000127243
-0.000123815
9.0237e-06
-1.43956e-05
7.60168e-07
-1.27008e-06
1.08858e-07
5.00012e-09
1.0345e-07
4.19247e-09
3.69368e-07
6.30474e-08
2.60494e-06
1.00716e-06
1.1676e-05
3.4844e-05
9.71346e-06
-8.58147e-05
1.94228e-05
-0.000111239
2.85797e-05
-0.000107173
3.82494e-05
-0.000105762
4.85072e-05
-0.000108249
5.92605e-05
-0.000112491
7.05619e-05
-0.000117719
8.25648e-05
-0.000123879
9.54807e-05
-0.000131177
0.000109463
-0.000139461
0.000124921
-0.000149302
0.000142063
-0.000160395
0.000160477
-0.000171725
0.000180166
-0.000183672
0.000161797
-0.000160231
1.4268e-05
-2.99313e-05
1.30511e-06
-2.04729e-06
4.72594e-09
-4.11411e-08
2.45643e-09
8.94716e-10
1.14852e-09
1.24284e-09
3.69783e-08
7.73361e-09
7.55061e-07
1.98208e-07
3.22619e-06
8.85699e-06
9.31722e-06
-9.51319e-05
1.7882e-05
-0.000119804
2.60655e-05
-0.000115357
3.48774e-05
-0.000114574
4.42274e-05
-0.000117599
5.39947e-05
-0.000122258
6.42433e-05
-0.000127968
7.51345e-05
-0.00013477
8.68654e-05
-0.000142908
9.95792e-05
-0.000152175
0.000113843
-0.000163566
0.0001294
-0.000175952
0.000145894
-0.000188217
0.000152866
-0.000190651
3.23579e-05
-9.28729e-05
1.96105e-06
-4.41357e-06
4.90713e-08
-2.2043e-07
-2.37042e-10
2.60114e-09
-8.7592e-10
7.17097e-10
-6.9127e-10
2.69299e-10
2.70145e-10
1.82857e-09
1.56958e-07
2.21149e-08
4.90762e-07
2.79523e-06
8.7728e-06
-0.000103905
1.614e-05
-0.000127171
2.33372e-05
-0.000122554
3.12199e-05
-0.000122456
3.95511e-05
-0.00012593
4.82056e-05
-0.000130913
5.72581e-05
-0.00013702
6.68716e-05
-0.000144384
7.72033e-05
-0.00015324
8.84404e-05
-0.000163412
0.000101117
-0.000176243
0.000114397
-0.00018923
0.000128315
-0.000202132
9.46261e-05
-0.000168371
4.07222e-06
-1.50127e-05
2.31645e-07
-6.9769e-07
-1.22083e-09
4.03278e-09
-7.40884e-10
1.14179e-09
-2.06205e-10
8.96766e-11
-1.33859e-10
4.80759e-11
1.87332e-10
3.9296e-10
9.9617e-09
4.69852e-09
4.97686e-08
4.23935e-07
8.09366e-06
-0.000111998
1.42415e-05
-0.000133319
2.04512e-05
-0.000128764
2.7342e-05
-0.000129347
3.45654e-05
-0.000133154
4.20081e-05
-0.000138355
4.97477e-05
-0.00014476
5.79276e-05
-0.000152563
6.66386e-05
-0.00016195
7.6125e-05
-0.000172897
8.64054e-05
-0.000186521
9.67965e-05
-0.000199614
0.000102835
-0.000208114
1.30434e-05
-7.83439e-05
6.36709e-07
-2.13068e-06
-1.91828e-09
-6.10612e-08
-9.9187e-10
2.3994e-09
-9.89356e-11
1.409e-10
-2.74954e-11
9.18029e-12
-1.26477e-11
7.00869e-12
7.03051e-11
6.3374e-11
7.31905e-10
6.19342e-10
7.14184e-09
3.48496e-08
7.31607e-06
-0.000119314
1.22628e-05
-0.000138266
1.75028e-05
-0.000134004
2.33641e-05
-0.000135208
2.94278e-05
-0.000139217
3.55926e-05
-0.00014452
4.19089e-05
-0.000151075
4.84417e-05
-0.000159095
5.51643e-05
-0.000168669
6.22164e-05
-0.000179939
6.88391e-05
-0.000193123
7.59942e-05
-0.000206711
6.16557e-05
-0.00019694
1.81542e-06
-1.59706e-05
5.92509e-08
-3.8379e-07
-2.28904e-09
5.80097e-10
-1.32158e-10
1.76122e-10
-1.0181e-11
9.95114e-12
-2.83304e-12
8.83476e-13
-7.03653e-13
9.78364e-13
1.46746e-11
7.08676e-12
1.28773e-10
5.91805e-11
1.24216e-09
3.76556e-09
6.50134e-06
-0.000125814
1.02903e-05
-0.000142052
1.45907e-05
-0.000138301
1.94038e-05
-0.000140018
2.42602e-05
-0.000144069
2.90444e-05
-0.000149298
3.37161e-05
-0.000155739
3.82022e-05
-0.000163565
4.23026e-05
-0.000172731
4.59196e-05
-0.000183471
4.82251e-05
-0.000195263
5.03008e-05
-0.000208342
1.29455e-05
-0.00014511
3.12545e-07
-2.6485e-06
-4.69602e-10
-7.04819e-08
-1.44249e-10
2.70685e-10
-8.56886e-12
3.44023e-11
-8.22536e-13
1.7262e-12
-2.62672e-13
2.28877e-13
-9.12595e-14
2.8592e-13
1.13775e-12
7.14177e-13
2.80096e-12
1.13363e-11
1.7786e-10
8.19374e-10
5.67671e-06
-0.000131473
8.28761e-06
-0.000144633
1.16296e-05
-0.000141614
1.53142e-05
-0.000143668
1.88095e-05
-0.00014752
2.19536e-05
-0.000152385
2.45794e-05
-0.000158288
2.65892e-05
-0.000165437
2.78555e-05
-0.000173665
2.88971e-05
-0.00018381
3.04942e-05
-0.000192156
3.04662e-05
-0.000164871
-3.13726e-07
-6.17854e-05
1.07135e-08
-3.06844e-06
1.28999e-10
-6.10819e-08
-7.34394e-12
4.09002e-10
-3.86364e-13
2.67778e-11
-1.18051e-13
1.72635e-12
-3.53633e-14
5.35012e-13
-1.68984e-14
1.96432e-13
1.47765e-14
1.18675e-13
5.54704e-12
1.50818e-12
2.03752e-11
1.28194e-10
4.69575e-06
-0.000135971
5.94466e-06
-0.000145586
8.19848e-06
-0.000143569
1.05714e-05
-0.000145689
1.25298e-05
-0.000149046
1.39876e-05
-0.000153295
1.48276e-05
-0.000155998
1.52204e-05
-0.000146618
1.5332e-05
-0.000123816
1.49988e-05
-8.77861e-05
1.39878e-05
-4.72905e-05
6.7121e-06
-3.26723e-06
-3.6247e-07
-2.48785e-07
-2.02008e-07
-4.53464e-06
8.60692e-09
-2.81381e-07
4.85685e-10
7.97209e-09
4.9902e-12
5.03743e-10
-2.50298e-14
7.13628e-12
-3.4817e-15
5.79241e-13
-1.68155e-15
1.87282e-13
1.98722e-14
8.1789e-14
8.45439e-13
1.71011e-13
1.98793e-12
1.44939e-11
3.1691e-06
-9.12325e-05
2.91529e-06
-8.43233e-05
3.96371e-06
-8.09959e-05
4.8678e-06
-7.3718e-05
5.30432e-06
-6.39592e-05
5.41027e-06
-5.19943e-05
5.4488e-06
-3.76967e-05
5.20835e-06
-9.12989e-07
4.53272e-06
-3.36924e-08
2.67876e-06
-1.91012e-09
3.51305e-06
-1.0316e-10
2.4911e-07
-2.26956e-09
1.3527e-08
-5.42367e-10
1.25657e-06
-2.03566e-06
3.80569e-08
-1.43604e-06
5.58285e-09
3.70676e-08
1.42278e-10
5.84542e-09
4.60496e-13
1.47856e-10
-3.70142e-15
1.31029e-12
4.40974e-16
1.34034e-13
3.15902e-15
5.49467e-14
7.48175e-14
3.01932e-14
2.00404e-13
1.28103e-12
5.54013e-07
1.01861e-23
2.93627e-07
7.68873e-25
4.7837e-07
-5.64663e-23
5.93338e-07
-6.75975e-21
6.27749e-07
-3.16314e-19
5.05065e-07
-1.54257e-17
9.4865e-07
-3.21664e-16
3.56614e-08
-1.5404e-14
1.96957e-09
-6.47185e-13
7.38017e-11
-1.5941e-11
4.87624e-11
-8.12515e-11
2.2251e-10
-1.36014e-09
1.84861e-09
-1.14458e-09
5.72829e-07
-3.72935e-09
6.43598e-07
-1.31863e-06
6.84583e-09
1.15321e-07
1.39121e-10
1.24561e-08
1.0114e-12
2.85987e-10
-1.91666e-15
2.24019e-12
-9.6819e-16
5.56729e-14
-4.49088e-17
2.21467e-14
3.10338e-15
9.67763e-15
2.70166e-14
8.25305e-14
-1.86699e-25
3.02017e-23
-2.59435e-26
3.55099e-24
3.59475e-25
-5.68517e-23
7.30964e-23
-6.83899e-21
5.45572e-21
-3.22481e-19
2.15069e-19
-1.56761e-17
2.12157e-17
-3.44716e-16
7.23199e-16
-1.61817e-14
3.75519e-14
-6.85178e-13
2.68901e-12
-1.86567e-11
1.28039e-10
-2.08189e-10
6.0902e-10
-1.90063e-09
1.0542e-09
-1.47788e-09
1.35428e-09
-4.85412e-09
2.21426e-07
-1.61782e-06
3.5884e-09
1.65826e-07
-1.61204e-10
1.63056e-08
-2.27472e-12
1.27021e-10
-1.66766e-14
3.69904e-13
-1.46954e-15
1.36399e-14
-3.56905e-16
6.19127e-15
-1.5037e-16
2.02955e-15
5.76916e-15
2.68719e-15
-5.63257e-25
2.74733e-23
-1.48341e-25
1.41943e-23
6.89522e-24
-1.91145e-22
1.07518e-21
-2.05758e-20
6.26178e-20
-9.01058e-19
3.75947e-18
-4.223e-17
2.14018e-16
-1.59227e-15
2.30263e-14
-3.96706e-14
9.60445e-13
-1.63434e-12
2.82982e-11
-4.61259e-11
8.17733e-10
-1.38389e-09
3.61603e-09
-5.03855e-09
7.11205e-09
-6.29932e-09
4.60608e-08
-2.79664e-08
4.78406e-08
-4.0101e-07
-1.37208e-08
1.24569e-07
-1.06411e-10
2.70568e-09
-3.17031e-13
2.05568e-11
-5.25705e-15
5.23893e-14
-7.18759e-16
1.18578e-15
-1.51642e-16
1.41278e-15
-1.5956e-16
3.22741e-16
9.30113e-16
-2.45037e-16
-2.49662e-25
7.9797e-24
-2.82773e-25
5.35389e-23
1.86822e-23
-4.62672e-22
3.09563e-21
-7.16742e-20
2.02738e-19
-4.44376e-18
1.19183e-17
-2.12768e-16
1.04199e-15
-6.77202e-15
9.02249e-14
-2.02259e-13
3.3264e-12
-7.61461e-12
1.60456e-10
-2.0572e-10
2.80118e-09
-5.98514e-09
6.6558e-09
-1.01191e-07
3.44115e-09
-1.78112e-07
-2.54773e-08
-7.11976e-08
-8.74186e-08
-2.16401e-09
-2.33936e-09
4.64272e-08
-1.80071e-11
3.85972e-10
-4.50618e-14
2.59463e-12
-5.92207e-16
5.74809e-15
-2.30289e-16
1.41199e-16
-4.17011e-17
2.79045e-16
-4.02446e-17
4.68522e-17
9.35596e-17
-1.05574e-16
2.42172e-25
7.49313e-24
-5.10601e-24
1.86112e-22
-2.88838e-23
-5.48225e-22
-4.78889e-21
-1.13626e-19
-4.69638e-19
-8.07265e-18
-1.79085e-17
-3.27649e-16
5.62062e-15
-1.60771e-14
4.54758e-13
-6.96464e-13
1.47113e-11
-2.33189e-11
4.63695e-10
-5.44717e-10
-8.00934e-10
-8.04641e-09
-9.79874e-08
-1.54662e-07
-1.1495e-07
-1.45154e-07
-1.2903e-07
-4.17555e-08
-4.28533e-08
4.17107e-09
-3.55269e-10
3.93998e-09
-2.3834e-12
3.33428e-11
-5.37043e-15
2.09217e-13
-6.59443e-17
4.50297e-16
-6.55486e-17
3.31887e-17
-8.57762e-18
5.11294e-17
-7.48796e-18
5.82233e-18
8.11646e-18
-1.78784e-17
3.14678e-24
2.17734e-23
-2.91327e-23
5.92581e-22
-9.03809e-22
5.01427e-22
-3.3362e-20
-8.57886e-20
-1.4995e-18
-5.76439e-18
4.98378e-17
-2.0834e-16
-1.00154e-14
-6.32419e-15
-5.35489e-13
-1.83506e-13
-2.00021e-11
-4.31121e-12
-5.02283e-10
-7.30633e-11
-7.31751e-09
-1.06003e-09
-1.42313e-07
-2.52105e-08
-2.27521e-07
-4.43544e-08
-1.16534e-07
-5.63217e-09
-3.6752e-09
2.03741e-09
-3.03146e-11
2.96364e-10
-1.90831e-13
3.24524e-12
-4.27123e-16
1.87491e-14
-1.44994e-17
2.92767e-17
-1.65376e-17
1.04165e-17
-1.37796e-18
1.09583e-17
-1.12961e-18
6.11787e-19
6.43138e-19
-2.20764e-18
1.63938e-23
4.72786e-23
2.84197e-23
1.58258e-21
-1.23045e-20
1.54661e-20
-2.73683e-20
-8.34527e-20
-1.93495e-18
-6.50549e-18
-9.34696e-17
-2.76444e-16
1.55111e-15
-1.79659e-14
1.21858e-13
-2.58839e-13
-2.1747e-12
-8.99797e-13
-7.49276e-11
-1.56461e-13
-6.06967e-10
-2.02534e-13
-1.24528e-08
-2.58768e-12
-1.95268e-08
-1.47319e-11
-2.40754e-09
-6.23942e-11
-2.88522e-10
5.78137e-11
-3.02388e-12
1.10193e-11
-1.72042e-14
2.39048e-13
-3.17998e-17
1.35031e-15
-6.36147e-18
1.99693e-18
-5.19104e-18
4.28125e-18
-1.90973e-19
3.39272e-18
-1.29359e-19
5.30658e-20
4.45213e-20
-2.19882e-19
5.90617e-23
7.01742e-23
1.18189e-21
2.76213e-21
-1.75678e-20
4.76786e-20
-5.68585e-19
4.67565e-19
-9.8046e-18
2.73053e-18
-4.6445e-16
8.81597e-18
-6.27993e-14
9.82874e-18
-7.85273e-14
-1.87497e-16
-1.19939e-14
-1.68032e-15
-3.45941e-14
-6.44053e-15
-2.19256e-13
-3.53369e-14
-2.37184e-12
-4.05551e-13
-1.4656e-11
-1.70549e-12
-7.1061e-11
-8.37092e-13
-1.10056e-11
1.11053e-12
-2.35089e-13
2.61766e-13
-1.31826e-15
5.37942e-15
-2.46253e-18
2.19909e-17
-3.28504e-18
9.67846e-19
-2.51666e-18
1.86805e-18
-1.97093e-20
1.09684e-18
-1.23996e-20
3.56609e-21
2.67384e-21
-1.81328e-20
1.25612e-22
5.55481e-23
4.42487e-21
2.16633e-21
6.67166e-20
3.7105e-20
5.38302e-19
3.61205e-19
2.27883e-18
2.10265e-18
3.24386e-18
6.73207e-18
-8.6221e-18
5.37221e-18
-1.50989e-16
-4.51297e-17
-1.25838e-15
-5.85587e-16
-6.26559e-15
-2.13438e-15
-4.21436e-14
-2.97155e-15
-1.0493e-12
-4.23247e-15
-3.90434e-12
-2.95195e-15
-1.39784e-12
-5.78093e-15
-2.63024e-13
2.29566e-15
-5.33794e-15
4.71064e-15
-2.15283e-17
7.29072e-17
-8.21714e-19
1.45708e-18
-1.3625e-18
5.55726e-19
-8.59481e-19
5.06877e-19
-1.54325e-21
1.87213e-19
-8.75812e-22
1.79057e-22
1.39167e-22
-1.25224e-21
1.12833e-22
1.97912e-23
3.9346e-21
7.71927e-22
5.8847e-20
1.32293e-20
4.72483e-19
1.28136e-19
1.97941e-18
7.26316e-19
2.01174e-18
2.01359e-18
-2.13185e-17
-1.86109e-18
-9.24876e-17
-2.82589e-17
-1.47195e-15
-6.24962e-16
-3.33684e-15
-3.55626e-15
-2.49014e-15
-6.1478e-15
-1.83197e-15
-4.67085e-15
-2.00603e-15
-1.68582e-15
-7.12016e-15
-2.74263e-16
-4.77585e-15
-6.65729e-18
-7.01435e-17
2.70399e-17
-8.09409e-19
3.92285e-18
5.37758e-19
1.09638e-19
-2.66018e-19
-2.70531e-19
-1.18358e-19
3.88509e-20
-8.59882e-23
9.27407e-21
-5.15674e-23
7.16854e-24
6.23089e-24
-7.30705e-23
4.41955e-23
9.18142e-29
1.5405e-21
-1.04055e-27
2.29157e-20
-1.03245e-25
1.78996e-19
-6.7045e-24
6.48374e-19
-3.17733e-22
-7.61719e-19
-1.16319e-20
-2.1103e-18
-5.80903e-19
-7.85172e-17
-7.33172e-18
-1.61769e-15
-2.13113e-16
-6.18774e-15
-2.20704e-15
-8.3406e-15
-5.17949e-15
-6.30186e-15
-5.33404e-15
-1.81521e-15
-3.73083e-15
-1.00355e-16
-1.48635e-15
-2.61331e-17
-5.4803e-17
-1.21517e-18
2.33194e-18
2.59003e-18
1.17656e-19
1.66896e-18
-8.03604e-19
-1.83038e-20
-7.2091e-19
-5.51165e-21
7.09859e-22
-3.7219e-24
1.74042e-22
-2.57811e-24
2.44785e-25
2.40503e-25
-3.64901e-24
-6.34838e-29
-5.51115e-33
-1.1019e-27
-2.13435e-30
-1.0413e-25
-2.16099e-28
-6.79426e-24
-1.4378e-26
-3.23825e-22
-7.02381e-25
-1.1929e-20
-2.67145e-23
-5.7663e-19
-7.94336e-22
-8.92744e-18
-1.04829e-20
-3.92544e-16
-2.60934e-19
-3.76674e-15
-6.6373e-18
-8.39402e-15
-5.45168e-17
-9.08988e-15
-1.37172e-16
-6.63495e-15
-7.08887e-17
-1.56559e-15
-3.87297e-17
-4.42771e-19
-2.6846e-18
1.88774e-18
1.42796e-21
2.56183e-18
-2.63143e-19
1.40377e-18
-6.50519e-19
-6.26533e-22
-5.20103e-19
-1.47106e-22
1.69818e-23
-1.36731e-25
7.10032e-24
-1.07682e-25
7.71172e-27
7.98523e-27
-1.56572e-25
-5.46381e-33
-4.73374e-35
-2.13333e-30
-1.00781e-32
-2.17528e-28
-1.06306e-30
-1.45455e-26
-7.39113e-29
-7.14326e-25
-3.78929e-27
-2.73234e-23
-1.52118e-25
-8.18358e-22
-4.81337e-24
-1.12731e-20
-6.97697e-23
-3.65222e-19
-1.87869e-21
-1.00321e-17
-4.74599e-20
-7.10701e-17
-3.94733e-19
-1.62291e-16
-1.05753e-18
-1.08474e-16
-1.26146e-18
-2.25852e-17
-8.66335e-19
2.20948e-20
-2.13915e-19
7.10348e-19
-5.34992e-21
1.06686e-18
-6.63605e-20
6.02453e-19
-2.18131e-19
-1.65149e-23
-1.90831e-19
-6.95193e-24
7.10057e-24
-6.77505e-27
1.23174e-25
-4.00512e-27
1.95902e-28
2.27845e-28
-5.78585e-27
-4.73274e-35
-1.85208e-38
-1.01231e-32
-4.16845e-36
-1.07292e-30
-4.64872e-34
-7.49613e-29
-3.43047e-32
-3.86285e-27
-1.87487e-30
-1.55913e-25
-8.06763e-29
-4.96748e-24
-2.75617e-27
-7.34319e-23
-4.34922e-26
-2.90542e-21
-1.10481e-24
-7.91022e-20
-2.78966e-23
-5.16877e-19
-6.71261e-22
-1.18841e-18
-6.29825e-21
-1.42106e-18
-1.82109e-20
-1.00276e-18
-2.10958e-20
-3.94903e-19
-1.29432e-20
5.28331e-20
-1.12026e-21
2.38623e-19
-2.61739e-21
1.49947e-19
-3.79257e-20
1.56933e-24
-4.02945e-20
-1.1791e-25
-5.99281e-25
-1.83034e-28
2.45032e-27
-1.15364e-28
4.48589e-30
5.69054e-30
-1.84633e-28
-1.85281e-38
7.31678e-42
-4.18495e-36
-4.09533e-39
-4.67745e-34
-5.04983e-37
-3.46412e-32
-4.15027e-35
-1.90043e-30
-2.52618e-33
-8.21124e-29
-1.2121e-31
-1.69956e-27
-2.75636e-30
-4.69391e-26
-8.95451e-29
-1.16425e-24
-2.46255e-27
-4.51068e-23
-6.44175e-26
-1.44244e-21
-1.88254e-24
-1.18006e-20
-2.62735e-23
-2.91764e-20
-9.99987e-23
-3.27133e-20
-1.23938e-22
-1.85877e-20
-5.53006e-23
1.03129e-20
2.22692e-23
3.06533e-20
-7.72939e-23
2.28479e-20
-3.57175e-21
1.23887e-24
-5.13702e-21
-2.37149e-27
-4.16203e-25
-4.62446e-30
4.02616e-29
-2.96915e-30
7.7632e-32
1.23662e-31
-5.09675e-30
-1.46138e-40
1.8599e-42
-4.01214e-39
1.73974e-41
-4.80208e-37
-1.793e-40
-3.97124e-35
-1.55105e-38
-2.43359e-33
-9.9518e-37
-1.17558e-31
-5.06256e-35
-4.41532e-30
-2.09533e-33
-9.39917e-29
-6.02401e-32
-2.56565e-27
-1.82599e-30
-9.13158e-26
-5.15244e-29
-4.46083e-24
-1.8503e-27
-5.74725e-23
-3.19543e-26
-1.58526e-22
-8.87927e-26
-1.52863e-22
1.76882e-26
1.91981e-22
3.64761e-25
8.40883e-22
1.08117e-24
2.26504e-21
9.74995e-25
2.17907e-21
-1.71244e-22
2.56641e-25
-4.00728e-22
-3.9415e-29
-7.55744e-26
-1.06529e-31
5.41674e-31
-5.8954e-32
1.56134e-33
2.35921e-33
-1.21986e-31
1.11151e-42
-4.4021e-49
-1.89299e-41
-1.33897e-46
-1.982e-40
-3.03058e-44
-1.57084e-38
-2.89827e-42
-1.01089e-36
-1.99136e-40
-5.16376e-35
-1.09006e-38
-2.14708e-33
-4.89084e-37
-6.23972e-32
-1.56454e-35
-1.88982e-30
-5.62392e-34
-7.10995e-29
-3.02091e-32
-6.53809e-27
-2.01884e-31
-7.43645e-26
4.40382e-30
4.02927e-26
9.47819e-29
1.23376e-24
8.56233e-28
6.64581e-24
4.64978e-27
2.63443e-23
1.66965e-26
9.13915e-23
3.29857e-26
1.29897e-22
-3.28454e-24
2.95451e-26
-1.88732e-23
-5.40965e-31
-7.58109e-27
-2.38024e-33
2.9985e-33
-1.27077e-33
4.37014e-35
3.91897e-35
-2.53789e-33
-8.05923e-49
3.65713e-49
-2.16258e-46
8.15558e-47
-3.93917e-44
8.89234e-45
-3.57443e-42
6.36774e-43
-2.36112e-40
3.34012e-41
-1.24947e-38
1.35799e-39
-5.4578e-37
4.42081e-38
-1.73649e-35
1.17433e-36
-1.73987e-33
2.56932e-35
-9.44918e-32
4.63516e-34
5.3203e-30
6.84695e-33
1.45817e-28
8.1611e-32
1.74435e-27
7.70629e-31
1.3446e-26
5.68714e-30
7.91029e-26
3.27713e-29
3.96345e-25
1.45746e-28
1.81424e-24
4.42479e-28
4.72336e-24
7.72293e-29
2.13505e-27
-5.10615e-25
-7.38558e-33
-4.73066e-28
-4.7373e-35
2.6204e-34
-2.73474e-35
1.07694e-36
5.85876e-37
-4.60725e-35
4.84605e-48
7.86943e-50
1.07467e-45
1.2904e-47
1.17823e-43
1.00332e-45
8.46588e-42
5.01163e-44
4.45271e-40
1.80633e-42
1.81512e-38
5.0044e-41
5.92527e-37
1.10857e-39
1.57774e-35
2.01703e-38
3.45483e-34
3.07389e-37
6.21777e-33
3.9821e-36
9.12549e-32
4.43573e-35
1.0816e-30
4.2862e-34
1.03479e-29
3.6144e-33
8.17388e-29
2.6646e-32
5.54956e-28
1.70663e-31
3.37029e-27
9.25849e-31
1.88187e-26
3.89501e-30
9.84018e-26
7.46729e-30
1.006e-28
-7.03392e-27
-1.48167e-34
-1.89909e-29
-1.75572e-36
1.92629e-36
-4.31769e-37
2.91763e-38
8.24897e-39
-7.33496e-37
7.23994e-49
6.47188e-54
1.14622e-46
1.29509e-51
8.76257e-45
1.22495e-49
4.32305e-43
7.43021e-48
1.54738e-41
3.24715e-46
4.28387e-40
1.08903e-44
9.55271e-39
2.91505e-43
1.7653e-37
6.39488e-42
2.76226e-36
1.17184e-40
3.72426e-35
1.81966e-39
4.39201e-34
2.42177e-38
4.59246e-33
2.78897e-37
4.31295e-32
2.80311e-36
3.68391e-31
2.47843e-35
2.89883e-30
1.94036e-34
2.13145e-29
1.34439e-33
1.49036e-28
7.96665e-33
1.01443e-27
3.20269e-32
3.11024e-30
-3.51993e-29
-2.17675e-36
-4.90537e-31
-5.08322e-38
1.44965e-38
-6.35506e-39
6.17786e-40
1.1629e-40
-1.03358e-38
6.75848e-53
1.2219e-65
1.30308e-50
6.34252e-64
1.20957e-48
-5.98504e-61
7.23078e-47
-1.63444e-58
3.12929e-45
-2.37517e-56
1.04492e-43
-2.45105e-54
2.80226e-42
-1.99928e-52
6.20579e-41
-1.36594e-50
1.15882e-39
-8.11111e-49
1.85589e-38
-4.29559e-47
2.58841e-37
-2.06168e-45
3.1926e-36
-9.08878e-44
3.544e-35
-3.65404e-42
3.61945e-34
-2.59694e-41
3.50063e-33
9.01379e-40
3.32525e-32
1.94462e-38
3.22436e-31
1.89997e-37
3.27948e-30
1.10674e-36
6.21761e-32
2.89452e-37
-2.92911e-38
-7.94673e-33
-1.07618e-39
1.67779e-40
-1.02344e-40
1.04446e-41
1.84025e-42
-1.32801e-40
3.02773e-65
2.33953e-64
-5.82829e-62
7.25496e-62
-1.13309e-59
1.06741e-59
-1.1879e-57
1.01312e-57
-9.47588e-56
6.98192e-56
-6.27164e-54
3.72582e-54
-3.66495e-52
1.60295e-52
-1.97405e-50
5.71455e-51
-1.00303e-48
1.72174e-49
-4.89948e-47
4.44881e-48
-2.36607e-45
9.96899e-47
-4.64595e-43
1.95383e-45
-3.24663e-41
3.37048e-44
1.44402e-39
5.13848e-43
4.223e-38
6.92864e-42
6.23226e-37
8.21221e-41
7.19309e-36
8.34432e-40
7.59595e-35
6.61532e-39
7.73272e-34
2.13772e-38
-3.21707e-40
-7.63173e-35
-2.00945e-41
1.47688e-42
-1.86593e-42
1.79052e-43
3.4828e-44
-1.61568e-42
3.10532e-63
6.89418e-69
9.32237e-61
2.71698e-66
1.3538e-58
5.08672e-64
1.27443e-56
6.15303e-62
8.75492e-55
5.41505e-60
4.68272e-53
3.69829e-58
2.03149e-51
2.04097e-56
7.35312e-50
9.35434e-55
2.26747e-48
3.63099e-53
6.05504e-47
1.21097e-51
1.41935e-45
3.50789e-50
2.95593e-44
8.89914e-49
5.53314e-43
1.98987e-47
9.42319e-42
3.94139e-46
1.47991e-40
6.93981e-45
2.17643e-39
1.08617e-43
3.0488e-38
1.49287e-42
4.14291e-37
1.69867e-41
5.56441e-36
1.14218e-40
-3.14677e-42
-3.88256e-37
-3.41759e-43
1.302e-44
-3.65126e-44
2.91601e-45
7.09649e-46
-2.10081e-44
1.01616e-67
6.30112e-76
3.88168e-65
3.77604e-73
7.18212e-63
1.08296e-70
8.62696e-61
2.02638e-68
7.57567e-59
2.79012e-66
5.18917e-57
3.01857e-64
2.88814e-55
2.67443e-62
1.34328e-53
1.99613e-60
5.32917e-52
1.28077e-58
1.8323e-50
7.17008e-57
5.53168e-49
3.54044e-55
1.48373e-47
1.55382e-53
3.57815e-46
6.09134e-52
7.86465e-45
2.13868e-50
1.60224e-43
6.7284e-49