/*--------------------------------*- C++ -*----------------------------------*\
| =========                 |                                                 |
| \\      /  F ield         | OpenFOAM: The Open Source CFD Toolbox           |
|  \\    /   O peration     | Version:  2206                                  |
|   \\  /    A nd           | Website:  www.openfoam.com                      |
|    \\/     M anipulation  |                                                 |
\*---------------------------------------------------------------------------*/
FoamFile
{
    version     2.0;
    format      ascii;
    arch        "LSB;label=32;scalar=64";
    class       volScalarField;
    location    "0.05";
    object      alpha.water;
}
// * * * * * * * * * * * * * * * * * * * * * * * * * * * * * * * * * * * * * //

dimensions      [0 0 0 0 0 0 0];

internalField   nonuniform List<scalar> 
2268
(
1
0.999999
0.999999
1
0.999999
1
1
1
1
1
1
1
0.997125
0.91446
0.460841
0.0379134
0.0124787
0.00331176
0.00067038
9.98991e-05
1.00744e-05
1.11176e-06
1.01347e-06
0.999998
1
0.999999
1
1
1
1
1
1
0.999999
1
1
0.983822
0.742518
0.251185
0.0339142
0.0125725
0.00365088
0.00078518
0.000122294
1.28856e-05
1.16329e-06
6.99097e-07
0.999999
1
1
1
1
0.999999
1
1
1
1
1
1
0.966824
0.460541
0.0513078
0.0181248
0.00881588
0.00351661
0.000796397
6.84285e-05
7.53682e-06
6.86239e-07
3.76052e-07
1
1
1
1
0.999999
0.999999
1
1
1
1
1
1
0.932294
0.290933
0.0223831
0.00882442
0.00326614
0.00137444
0.00035256
3.66844e-05
3.80941e-06
3.75e-07
1.98409e-07
1
1
1
0.999999
1
1
1
1
1
1
1
1
0.884912
0.203703
0.0126464
0.00419549
0.00141545
0.000390932
8.59528e-05
1.47326e-05
1.8276e-06
1.98129e-07
1.06081e-07
1
0.999999
1
1
1
1
1
1
1
0.999999
1
1
0.828918
0.139024
0.00732119
0.00196156
0.000600299
0.000161897
3.60129e-05
6.42936e-06
8.60671e-07
1.05914e-07
5.8154e-08
1
0.999999
1
1
1
1
1
0.999999
1
1
1
1
0.777113
0.0952747
0.00430227
0.00092169
0.000252319
6.59129e-05
1.48026e-05
2.76445e-06
4.04296e-07
5.81446e-08
2.97731e-08
1
1
1
1
1
1
1
0.999999
1
1
1
1
0.73336
0.070081
0.0025952
0.000454448
0.000108337
2.68446e-05
6.03622e-06
1.17974e-06
1.90798e-07
2.97731e-08
1.02945e-08
3.0805e-26
4.59992e-27
6.56819e-29
9.95112e-31
2.35748e-32
6.03937e-34
1.78197e-35
7.54581e-37
1.81567e-38
3.79572e-40
7.26759e-42
1.2327e-43
1.81287e-45
2.24963e-47
2.27025e-49
1.76473e-51
9.65111e-54
3.11057e-56
1.56592e-56
1.76646e-24
5.98311e-25
1.14137e-26
1.66161e-28
9.70294e-31
2.35748e-32
2.67206e-33
1.06612e-34
2.37894e-36
4.95921e-38
9.42809e-40
1.58362e-41
2.29185e-43
2.76688e-45
2.66073e-47
1.8896e-49
8.4879e-52
1.43827e-54
1.56372e-56
1.56854e-22
4.01082e-23
7.57912e-25
1.28762e-26
1.22121e-28
3.07383e-30
2.0921e-31
6.71657e-33
1.48321e-34
3.03911e-36
5.63467e-38
9.18645e-40
1.28018e-41
1.46626e-43
1.29236e-45
7.7426e-48
3.71375e-50
9.16495e-53
1.39684e-54
8.0288e-21
1.7791e-21
3.40994e-23
6.38914e-25
7.73957e-27
2.00708e-28
1.10925e-29
2.95285e-31
6.33851e-33
1.2751e-34
2.30083e-36
3.62242e-38
4.79946e-40
5.0511e-42
4.76164e-44
3.52197e-46
1.73906e-48
4.10417e-51
9.34752e-53
2.76963e-19
5.77683e-20
1.12377e-21
2.2686e-23
3.94103e-25
9.70343e-27
3.98115e-28
9.65176e-30
2.04988e-31
4.02795e-33
7.03522e-35
1.05424e-36
1.41404e-38
1.73202e-40
1.70245e-42
1.25813e-44
6.20403e-47
1.28331e-49
4.38669e-51
7.04695e-18
1.43276e-18
2.82933e-20
6.07367e-22
1.54761e-23
3.98244e-25
1.05517e-26
2.43623e-28
5.15395e-30
9.85488e-32
1.64561e-33
2.70481e-35
3.96667e-37
4.86157e-39
4.77787e-41
3.52845e-43
1.7361e-45
4.15772e-48
1.57539e-49
1.06783e-15
6.98602e-17
8.26808e-19
1.5288e-20
3.57571e-22
8.67614e-24
2.09758e-25
4.77916e-27
9.94477e-29
1.83836e-30
3.42349e-32
5.85659e-34
8.60566e-36
1.0556e-37
1.03741e-39
7.65654e-42
3.7692e-44
9.65036e-47
4.44079e-48
1.01902e-14
1.15843e-15
1.79434e-17
3.70503e-19
5.86511e-21
1.28983e-22
3.18643e-24
7.27408e-26
1.49106e-27
2.9057e-29
5.69196e-31
9.77405e-33
1.43929e-34
1.76713e-36
1.73677e-38
1.28106e-40
6.30303e-43
1.64201e-45
9.71181e-47
1
1
1
1
1
1
1
1
1
1
1
1
0.670981
0.0441417
0.00131414
0.000179604
3.27754e-05
6.98304e-06
1.50148e-06
3.06874e-07
5.89165e-08
1.02945e-08
1.35638e-09
1
1
1
1
1
1
1
1
1
1
1
1
0.576564
0.0193435
0.000653467
7.86022e-05
1.14216e-05
2.00263e-06
3.89553e-07
7.87653e-08
1.62283e-08
3.19987e-09
4.70365e-10
1
1
1
1
1
1
1
1
1
1
1
1
0.497517
0.00857806
0.000318951
3.42958e-05
4.31021e-06
6.31473e-07
1.0627e-07
1.96545e-08
3.86437e-09
7.80088e-10
1.21594e-10
1
1
1
1
1
1
1
1
1
1
1
1
0.430177
0.00345506
0.000166766
1.56813e-05
1.72678e-06
2.16062e-07
3.09614e-08
4.99538e-09
8.79394e-10
1.76841e-10
3.85947e-11
1
1
1
1
1
1
1
1
1
1
1
1
0.372024
0.0012603
8.89937e-05
7.44006e-06
7.1705e-07
7.82558e-08
9.62338e-09
1.33296e-09
2.18479e-10
3.92533e-11
1.01882e-11
1
1
1
1
1
1
1
1
1
1
1
1
0.321069
0.000744449
4.57598e-05
3.47793e-06
3.00281e-07
2.89491e-08
3.1222e-09
3.8138e-10
5.81262e-11
1.34362e-11
2.3573e-12
1
1
1
1
1
1
1
1
1
1
1
1
0.277384
0.000455467
2.36244e-05
1.65565e-06
1.32938e-07
1.09722e-08
1.04689e-09
1.27682e-10
1.70227e-11
4.1029e-12
5.2591e-13
1
1
1
1
1
1
1
1
1
1
1
1
0.239662
0.000316263
1.40885e-05
8.79603e-07
5.98447e-08
4.50758e-09
3.9545e-10
4.37775e-11
8.0241e-12
1.19759e-12
1.15959e-13
1
1
1
1
1
1
1
1
1
1
1
1
0.206787
0.00023959
1.00629e-05
5.48486e-07
3.25925e-08
2.12311e-09
1.66493e-10
1.59611e-11
3.32033e-12
3.5867e-13
2.81082e-14
1
1
1
1
1
1
1
1
1
1
1
1
0.178034
0.000178365
7.51544e-06
3.61274e-07
1.89929e-08
1.08682e-09
7.67717e-11
6.34275e-12
1.28928e-12
1.13672e-13
7.4145e-15
1
1
1
1
1
1
1
1
1
1
1
1
0.152829
0.000127431
4.20346e-06
2.42034e-07
1.16957e-08
6.00899e-10
3.66434e-11
2.75148e-12
5.19484e-13
3.78459e-14
2.09895e-15
1
1
1
1
1
1
1
1
0.999999
0.999999
0.999999
0.999999
0.130711
8.77635e-05
3.38607e-06
1.38299e-07
6.87863e-09
3.3027e-10
1.77712e-11
1.47283e-12
2.12836e-13
1.26438e-14
6.1764e-16
0.999999
0.999999
0.999999
0.999999
0.999999
0.999999
0.999998
0.999998
0.999998
0.999997
0.999997
0.999994
0.111274
6.04876e-05
2.36363e-06
9.67734e-08
4.23158e-09
1.79102e-10
8.73047e-12
9.69076e-13
8.64663e-14
4.14903e-15
1.81969e-16
0.999993
0.999993
0.999992
0.999992
0.999991
0.99999
0.999989
0.999988
0.999986
0.999984
0.999981
0.999966
0.0944866
4.66346e-05
1.48975e-06
5.74704e-08
2.43329e-09
1.06208e-10
4.40843e-12
4.90341e-13
3.35143e-14
1.37286e-15
5.21805e-17
0.999954
0.999953
0.999952
0.999949
0.999946
0.999941
0.999936
0.999929
0.999921
0.999908
0.999894
0.999815
0.0772402
4.16815e-05
1.68448e-06
6.65155e-08
1.86082e-10
-7.19627e-11
2.5372e-12
2.2705e-13
1.4227e-14
4.7828e-16
1.4845e-17
0.999713
0.999706
0.999699
0.999686
0.999669
0.999646
0.999618
0.999583
0.999543
0.999482
0.999413
0.998991
0.0648072
8.81063e-05
6.47737e-07
2.70827e-08
1.16968e-09
2.34023e-11
-2.95908e-12
2.16277e-13
7.58825e-15
1.71837e-16
4.0463e-18
0.998216
0.998185
0.998147
0.998084
0.997999
0.99789
0.997754
0.99759
0.997403
0.997105
0.996783
0.994521
0.136117
3.24686e-05
6.24197e-07
3.2969e-08
1.11772e-09
2.54402e-11
1.65928e-13
-6.44903e-15
2.46808e-15
4.42734e-17
7.64806e-19
0.942192
0.941359
0.939954
0.937807
0.934887
0.93116
0.926537
0.920777
0.914451
0.900866
0.88732
0.755516
0.220986
0.00014764
9.79411e-06
6.71072e-07
3.40012e-08
1.01676e-09
3.19892e-12
-3.97045e-14
5.18719e-16
6.09901e-18
8.13502e-20
0.298441
0.29674
0.29375
0.289348
0.283516
0.276332
0.267765
0.257551
0.247161
0.22402
0.204715
0.0635608
0.0621616
0.0194019
0.000364259
2.45054e-05
3.86757e-07
9.49107e-11
1.45809e-13
-8.25486e-16
-4.4464e-19
3.98565e-19
5.45905e-21
2.68781e-21
4.97072e-21
3.2277e-19
2.04862e-17
8.52292e-16
2.60106e-14
6.17145e-13
1.17956e-11
1.86028e-10
2.4483e-09
2.79153e-08
2.72792e-07
2.61253e-06
0.00570431
0.00215685
0.000120797
2.42487e-06
-3.1248e-10
1.80591e-14
-3.48156e-16
1.31564e-18
2.77069e-20
4.17838e-22
4.17755e-22
2.68781e-21
3.0398e-19
2.12339e-17
9.90188e-16
3.45169e-14
9.55808e-13
2.18437e-11
4.21758e-10
6.90702e-09
9.15545e-08
6.90033e-07
4.48448e-05
0.000148698
0.000523965
5.06882e-05
6.58367e-07
-8.56372e-11
-1.55792e-13
-6.62677e-17
2.83275e-19
2.34101e-21
3.21773e-23
1.90717e-23
4.17755e-22
5.31567e-20
3.5833e-18
1.60075e-16
5.28115e-15
1.16313e-13
1.96345e-12
2.75385e-11
3.1897e-10
3.04323e-09
2.3438e-08
3.75374e-06
9.88378e-06
2.16107e-06
1.75252e-07
6.36019e-10
-4.87993e-11
-2.26054e-14
-9.8921e-17
1.15894e-20
1.57229e-22
2.21104e-24
2.43995e-25
1.89132e-23
2.02274e-21
8.38534e-20
2.56856e-18
6.08952e-17
1.14716e-15
1.69277e-14
1.61566e-13
5.8395e-13
-1.02628e-11
-2.57247e-10
9.81318e-08
3.47326e-07
5.74886e-08
1.79781e-08
4.63591e-11
-6.88171e-12
-4.81339e-15
-1.50981e-18
6.19326e-22
8.68723e-24
1.35125e-25
6.52232e-28
8.48124e-27
-2.22528e-23
-1.4116e-21
-5.86564e-20
-1.78468e-18
-4.31266e-17
-8.58815e-16
-1.65026e-14
-3.99194e-13
-6.05793e-12
-5.40843e-11
3.31902e-10
1.15613e-09
5.6913e-10
1.07192e-09
1.37819e-12
-7.75093e-13
-6.89179e-16
-3.07538e-20
1.63215e-23
3.94632e-25
7.21146e-27
-4.01169e-29
-1.9185e-26
-1.14179e-24
-4.6448e-23
-1.40365e-21
-3.33075e-20
-6.53697e-19
-1.05127e-17
-1.56178e-16
-2.98029e-15
-5.1178e-14
-4.61362e-13
-1.47469e-13
3.29716e-13
3.14417e-12
1.96432e-11
-4.56957e-13
-6.23993e-14
-7.84504e-18
6.99072e-23
3.84358e-25
1.1797e-26
3.22906e-28
-1.16096e-31
3.37013e-31
3.44671e-29
1.43162e-27
4.74707e-26
1.4269e-24
3.11585e-23
-2.4659e-22
-3.60383e-20
-4.88685e-19
-5.40879e-18
-1.6746e-16
1.57364e-16
2.47528e-13
2.41357e-12
1.37902e-13
1.76192e-14
8.62018e-18
2.05146e-20
3.99751e-24
3.70234e-26
4.21932e-28
1.22016e-29
-4.91805e-35
-5.44106e-34
-6.28817e-32
-4.45573e-30
-1.54106e-28
-3.97707e-27
-4.35069e-26
-1.71407e-25
-1.37016e-23
-4.58624e-22
1.26541e-20
1.53626e-18
4.32977e-17
4.4109e-15
2.54138e-14
5.34683e-16
7.69544e-16
3.45648e-19
9.33085e-22
-3.98117e-25
1.86212e-27
2.16064e-29
3.57597e-31
-7.40982e-39
-4.24857e-37
-4.58153e-35
-1.71642e-33
-5.15202e-32
-1.31764e-30
-3.08987e-29
-7.12316e-28
-1.98108e-26
-9.42322e-25
1.1857e-24
1.7131e-21
6.74412e-20
4.46658e-18
4.23228e-17
5.23929e-17
5.33348e-18
1.07459e-20
3.41198e-23
7.82978e-27
3.36842e-29
9.70833e-31
9.99772e-33
1.74054e-43
-7.08797e-43
-1.41358e-38
-1.10556e-36
-5.74676e-35
-2.20245e-33
-6.62052e-32
-1.59314e-30
-2.9013e-29
-4.90957e-28
-1.31582e-27
8.47299e-25
2.08375e-23
4.04133e-22
5.76906e-20
5.04711e-19
1.46471e-20
2.55871e-22
1.00627e-24
2.66021e-28
3.00441e-30
3.85458e-32
4.19164e-34
-2.52244e-45
-1.21772e-42
-9.65291e-41
-5.2149e-39
-2.10232e-37
-6.69582e-36
-1.73834e-34
-3.86229e-33
-7.32167e-32
-1.04336e-30
-9.24085e-31
9.8383e-28
2.73302e-26
6.24977e-25
1.20182e-22
1.21812e-21
3.33427e-24
4.5896e-24
2.37636e-26
7.51967e-30
9.59481e-32
1.33064e-33
1.57665e-35
-7.05507e-51
-2.60065e-50
1.18682e-47
1.53186e-45
1.07938e-43
5.3909e-42
2.1469e-40
7.09766e-39
1.74816e-37
4.41441e-36
1.53822e-34
3.25455e-32
1.16918e-30
2.87838e-29
6.56657e-28
1.3668e-25
1.72251e-24
6.01212e-26
4.45548e-28
1.76527e-31
2.62007e-33
4.08032e-35
5.25394e-37
-6.35095e-55
-2.99928e-53
-2.01614e-51
-1.26068e-49
-6.66621e-48
-1.63271e-46
-1.74935e-45
2.32322e-43
4.96791e-42
2.23229e-40
3.75311e-38
2.52482e-35
1.34746e-33
3.98368e-32
1.0202e-30
3.17679e-28
4.66106e-27
3.16637e-29
3.47298e-30
3.42545e-33
5.46071e-35
1.08815e-36
1.60246e-38
-1.3043e-59
-1.68183e-57
-2.64069e-55
-2.03268e-53
-1.06382e-51
-4.39203e-50
-1.49913e-48
-4.37495e-47
-1.57527e-45
-3.82225e-44
1.34049e-43
1.10945e-39
1.78413e-37
6.82325e-36
2.24377e-34
9.32109e-32
1.54957e-30
1.0707e-33
1.27374e-32
5.46106e-35
7.16423e-37
2.07376e-38
4.33187e-40
8.47126e-66
3.17321e-63
5.14976e-61
5.6608e-59
4.55426e-57
2.89092e-55
1.52775e-53
6.9929e-52
2.59988e-50
1.05067e-48
4.16744e-47
1.63272e-45
5.85088e-43
3.53624e-41
1.32476e-39
4.14453e-38
2.23851e-35
5.13145e-34
2.05847e-35
7.16453e-37
7.71676e-39
3.0441e-40
8.95574e-42
-5.37847e-70
-4.56202e-67
-7.22786e-65
-7.92376e-63
-6.63246e-61
-4.40779e-59
-2.41244e-57
-1.10702e-55
-4.51829e-54
-1.53071e-52
1.90895e-52
1.07809e-50
3.05609e-47
1.56602e-44
8.2311e-43
3.25125e-41
2.65308e-38
7.14452e-37
1.06166e-39
7.70798e-39
6.81448e-41
3.87388e-42
1.43886e-43
1.20915e-75
7.25403e-73
1.71936e-70
2.6265e-68
2.95572e-66
2.64095e-64
1.96613e-62
1.25932e-60
7.08165e-59
3.46301e-57
1.72304e-55
7.50374e-54
3.1504e-52
5.82696e-50
7.15354e-48
4.01892e-46
2.35564e-44
1.72076e-41
5.39283e-40
5.89811e-41
4.93803e-43
4.27965e-44
2.23087e-45
1.04999e-79
5.36206e-77
1.36427e-74
2.31715e-72
2.96826e-70
3.06861e-68
2.67685e-66
2.03495e-64
1.37857e-62
8.41551e-61
4.86327e-59
2.62002e-57
1.35238e-55
7.25565e-54
2.91258e-51
3.21305e-49
2.01523e-47
3.47922e-44
1.38751e-42
1.12035e-43
2.94938e-45
4.16134e-46
2.93911e-47
8.94161e-85
5.61028e-82
1.75207e-79
3.71497e-77
6.01165e-75
7.91435e-73
8.84778e-71
8.66517e-69
7.59598e-67
6.10291e-65
4.56331e-63
3.18824e-61
2.15802e-59
1.40163e-57
1.03238e-55
9.60879e-53
1.20821e-50
4.27851e-47
2.13078e-45
1.0883e-46
1.46712e-47
3.61279e-48
3.5609e-49
-1.34769e-89
-8.93307e-87
-2.90575e-84
-6.20977e-82
-9.77289e-80
-1.19792e-77
-1.16892e-75
-8.91355e-74
-4.6861e-72
-1.84289e-71
-2.50189e-68
5.9516e-66
5.58995e-64
5.09446e-62
4.56953e-60
5.43893e-58
1.88543e-54
2.45051e-50
1.59523e-48
3.08198e-50
6.21003e-50
2.85372e-50
4.03073e-51
-7.55858e-98
-1.19733e-94
-8.07597e-92
-3.32841e-89
-9.74612e-87
-2.19572e-84
-3.99231e-82
-6.02835e-80
-7.66012e-78
-8.08767e-76
-8.016e-74
-3.55449e-72
-1.82683e-70
1.09089e-67
1.62367e-65
2.4077e-63
3.58396e-61
5.39612e-55
1.59025e-52
5.01609e-52
3.57156e-52
2.10361e-52
4.35038e-53
-1.85283e-104
-3.02011e-101
-2.41144e-98
-1.27498e-95
-5.03684e-93
-1.58793e-90
-4.16156e-88
-9.30723e-86
-1.80373e-83
-3.11121e-81
-4.3487e-79
-1.09533e-76
-2.08789e-77
1.00464e-73
7.90225e-71
3.46511e-68
1.53374e-65
7.067e-63
6.87193e-57
1.37893e-54
1.75473e-54
2.27883e-54
6.28318e-55
-1.11125e-116
-5.82802e-113
-1.4415e-109
-2.348e-106
-2.85817e-103
-2.78098e-100
-2.25589e-97
-1.56961e-94
-9.54615e-92
-5.13004e-89
-2.42816e-86
-9.89294e-84
-7.96065e-81
-4.64276e-80
-2.4283e-77
-2.1105e-77
-8.04294e-75
-1.17523e-70
2.90259e-61
8.2732e-58
5.83352e-57
4.54307e-55
7.9708e-56
1.51357e-10
1.22599e-11
1.58832e-12
1.35637e-13
1.17031e-10
1.00853e-11
8.06773e-13
4.92521e-14
3.85236e-11
3.12515e-12
1.84943e-13
1.05907e-14
8.39975e-12
5.36669e-13
3.35195e-14
1.9548e-15
1.62537e-12
9.01013e-14
5.83375e-15
3.42046e-16
2.98045e-13
1.53298e-14
9.80993e-16
5.69693e-17
5.75254e-14
2.66152e-15
1.62897e-16
9.20024e-18
1.18103e-14
4.78348e-16
2.72568e-17
1.46681e-18
2.60468e-15
9.01434e-17
4.6688e-18
2.3428e-19
6.19983e-16
1.79893e-17
8.29345e-19
3.79374e-20
1.57043e-16
3.79758e-18
1.53513e-19
6.2719e-21
4.09169e-17
8.31187e-19
2.92496e-20
1.05142e-21
1.05275e-17
1.81886e-19
5.56065e-21
1.74456e-22
2.58963e-18
3.81767e-20
1.0108e-21
2.75813e-23
6.00647e-19
7.42846e-21
1.68253e-22
3.9772e-24
1.15188e-19
1.25775e-21
2.41955e-23
4.96283e-25
1.42639e-20
1.59729e-22
2.71994e-24
5.03122e-26
9.90705e-22
1.38437e-23
2.26599e-25
4.031e-27
6.39056e-23
9.11119e-25
1.49775e-26
2.61861e-28
4.94894e-24
6.36053e-26
9.55551e-28
1.52178e-29
3.74104e-25
4.46411e-27
6.23966e-29
9.24658e-31
2.60269e-26
2.947e-28
3.91484e-30
5.48821e-32
1.66774e-27
1.81928e-29
2.32085e-31
3.10279e-33
9.74262e-29
1.04348e-30
1.29634e-32
1.67065e-34
5.14449e-30
5.52596e-32
6.78889e-34
8.53406e-36
2.4398e-31
2.68957e-33
3.32126e-35
4.12393e-37
1.03394e-32
1.19973e-34
1.51436e-36
1.88178e-38
3.88534e-34
4.89999e-36
6.42944e-38
8.10248e-40
1.29953e-35
1.83412e-37
2.54291e-39
3.29312e-41
3.92893e-37
6.30469e-39
9.38569e-41
1.26511e-42
1.085e-38
1.99043e-40
3.24237e-42
4.6043e-44
2.75642e-40
5.84867e-42
1.05255e-43
1.59226e-45
6.50151e-42
1.61892e-43
3.22327e-45
5.25073e-47
1.70561e-43
4.24272e-45
9.35548e-47
1.6576e-48
4.37128e-45
1.05535e-46
2.5979e-48
5.03005e-50
8.51044e-47
2.49605e-48
6.92409e-50
1.47341e-51
1.45423e-48
5.68729e-50
1.77534e-51
4.18409e-53
2.34302e-50
1.24763e-51
4.40961e-53
1.15707e-54
4.25259e-52
2.64934e-53
1.0668e-54
3.13098e-56
7.42029e-54
5.4674e-55
2.52878e-56
8.33344e-58
1.21822e-55
1.08102e-56
5.85178e-58
2.17238e-59
6.52479e-57
3.31479e-58
1.21588e-59
4.94561e-61
7.0273e-15
1.11192e-15
4.94169e-17
1.59849e-18
5.76346e-20
1.85442e-21
5.47851e-23
1.48377e-24
3.65087e-26
8.07258e-28
1.58297e-29
2.70641e-31
3.94447e-33
4.75364e-35
4.51954e-37
3.12818e-39
1.3254e-41
2.62385e-44
1.64257e-45
2.17021e-15
3.29701e-16
1.8035e-17
7.21498e-19
3.04933e-20
1.14287e-21
3.80757e-23
1.13548e-24
3.03122e-26
7.21203e-28
1.5174e-29
2.79252e-31
4.42844e-33
5.91307e-35
6.44551e-37
5.47851e-39
3.37273e-41
1.31279e-43
8.01942e-45
4.16838e-16
6.86208e-17
4.1225e-18
1.82371e-19
8.2486e-21
3.31306e-22
1.18792e-23
3.80151e-25
1.08378e-26
2.74166e-28
6.1138e-30
1.1893e-31
1.98787e-33
2.80441e-35
3.24768e-37
2.96245e-39
1.9923e-41
8.56764e-44
2.1806e-45
7.54332e-17
1.31663e-17
8.23146e-19
3.77939e-20
1.75662e-21
7.24779e-23
2.67014e-24
8.77556e-26
2.56658e-27
6.65039e-29
1.51634e-30
3.01277e-32
5.1455e-34
7.41126e-36
8.76068e-38
8.16158e-40
5.61527e-42
2.49304e-44
4.71999e-46
1.26237e-17
2.31185e-18
1.48568e-19
7.05807e-21
3.36875e-22
1.42712e-23
5.39105e-25
1.81401e-26
5.42306e-28
1.4341e-29
3.33244e-31
6.74009e-33
1.17088e-34
1.71472e-36
2.06115e-38
1.95406e-40
1.37018e-42
6.24366e-45
8.62573e-47
2.00128e-18
3.74937e-19
2.42766e-20
1.17951e-21
5.71939e-23
2.46571e-24
9.48181e-26
3.24718e-27
9.87483e-29
2.65451e-30
6.26578e-32
1.28655e-33
2.26806e-35
3.37046e-37
4.11268e-39
3.96182e-41
2.82761e-43
1.31977e-45
1.35748e-47
3.04903e-19
5.75422e-20
3.69731e-21
1.81322e-22
8.82929e-24
3.83372e-25
1.48709e-26
5.14192e-28
1.57957e-29
4.29015e-31
1.02322e-32
2.12291e-34
3.78195e-36
5.68113e-38
7.01145e-40
6.83818e-42
4.9485e-44
2.35242e-46
1.86758e-48
4.51316e-20
8.48509e-21
5.33813e-22
2.60954e-23
1.26239e-24
5.46741e-26
2.12079e-27
7.3467e-29
2.26407e-30
6.17479e-32
1.47989e-33
3.08724e-35
5.53334e-37
8.36817e-39
1.04063e-40
1.02374e-42
7.48339e-45
3.60593e-47
2.27331e-49
6.54897e-21
1.2155e-21
7.38881e-23
3.5552e-24
1.69082e-25
7.23647e-27
2.78382e-28
9.59026e-30
2.94539e-31
8.01887e-33
1.92108e-34
4.01063e-36
7.20132e-38
1.09217e-39
1.36355e-41
1.3484e-43
9.92208e-46
4.82643e-48
2.47279e-50
9.38133e-22
1.70634e-22
9.88546e-24
4.62066e-25
2.1377e-26
8.95803e-28
3.39022e-29
1.15329e-30
3.50798e-32
9.48128e-34
2.25942e-35
4.6999e-37
8.421e-39
1.27622e-40
1.59436e-42
1.5799e-44
1.16671e-46
5.70964e-49
2.42385e-51
1.32962e-22
2.35895e-23
1.28415e-24
5.75341e-26
2.56184e-27
1.04163e-28
3.84828e-30
1.28412e-31
3.84612e-33
1.02681e-34
2.42327e-36
5.00296e-38
8.91394e-40
1.34572e-41
1.67747e-43
1.66123e-45
1.22799e-47
6.02916e-50
2.15651e-52
1.85212e-23
3.20298e-24
1.61711e-25
6.8591e-27
2.91027e-28
1.13851e-29
4.07723e-31
1.32664e-32
3.89296e-34
1.02218e-35
2.38012e-37
4.86123e-39
8.58839e-41
1.28829e-42
1.59861e-44
1.57875e-46
1.16579e-48
5.73e-51
1.75266e-53
2.49074e-24
4.21268e-25
1.9535e-26
7.77344e-28
3.11817e-29
1.16583e-30
4.02453e-32
1.27095e-33
3.63972e-35
9.36844e-37
2.14623e-38
4.32606e-40
7.56249e-42
1.12504e-43
1.38736e-45
1.36417e-47
1.00477e-49
4.93606e-52
1.31217e-54
3.14828e-25
5.23414e-26
2.21953e-27
8.25731e-29
3.11897e-30
1.11044e-31
3.68339e-33
1.12593e-34
3.1396e-36
7.90646e-38
1.77916e-39
3.53412e-41
6.10546e-43
8.99777e-45
1.10153e-46
1.07735e-48
7.90729e-51
3.87837e-53
9.45444e-56
3.7825e-26
5.95151e-27
2.31188e-28
8.06887e-30
2.8731e-31
9.74426e-33
3.10571e-34
9.18704e-36
2.49355e-37
6.14158e-39
1.35699e-40
2.65547e-42
4.53194e-44
6.61382e-46
8.03495e-48
7.81355e-50
5.71222e-52
2.79559e-54
6.78962e-57
5.46493e-27
6.00129e-28
2.11525e-29
7.11713e-31
2.40428e-32
7.80322e-34
2.39741e-35
6.87855e-37
1.82024e-38
4.38995e-40
9.53235e-42
1.83879e-43
3.10156e-45
4.48368e-47
5.40656e-49
5.22801e-51
3.8071e-53
1.85906e-55
4.52016e-58
7.31267e-28
5.21015e-29
1.71176e-30
5.58556e-32
1.80947e-33
5.66434e-35
1.6873e-36
4.71569e-38
1.22055e-39
2.8894e-41
6.17724e-43
1.17631e-44
1.96316e-46
2.81366e-48
3.36985e-50
3.24199e-52
2.35262e-54
1.14661e-56
2.78328e-59
8.08873e-29
3.84838e-30
1.21795e-31
3.87886e-33
1.22012e-34
3.71874e-36
1.08168e-37
2.96072e-39
7.52633e-41
1.75446e-42
3.70223e-44
6.97333e-46
1.15332e-47
1.64091e-49
1.95403e-51
1.87194e-53
1.35463e-55
6.59308e-58
1.59795e-60
7.09354e-30
2.43243e-31
7.61594e-33
2.39115e-34
7.38864e-36
2.2128e-37
6.33031e-39
1.70655e-40
4.27968e-42
9.85852e-44
2.05916e-45
3.84509e-47
6.31391e-49
8.93149e-51
1.05886e-52
1.01117e-54
7.30341e-57
3.55223e-59
8.59772e-62
4.45383e-31
1.35662e-32
4.21946e-34
1.31705e-35
4.04016e-37
1.19942e-38
3.39718e-40
9.06801e-42
2.25319e-43
5.14726e-45
1.06726e-46
1.98046e-48
3.23525e-50
4.55776e-52
5.38699e-54
5.1342e-56
3.70482e-58
1.80212e-60
4.35638e-63
2.46593e-32
7.24475e-34
2.166e-35
6.69132e-37
2.0331e-38
5.96905e-40
1.67914e-41
4.46167e-43
1.10344e-44
2.50896e-46
5.17864e-48
9.57245e-50
1.55881e-51
2.19079e-53
2.58526e-55
2.46202e-57
1.77668e-59
8.64961e-62
2.08832e-64
1.36094e-33
3.90467e-35
1.13588e-36
3.38848e-38
9.95677e-40
2.83251e-41
7.84801e-43
2.0691e-44
5.07611e-46
1.1462e-47
2.36214e-49
4.36084e-51
7.09446e-53
9.96591e-55
1.17586e-56
1.12024e-58
8.09206e-61
3.9458e-63
9.51258e-66
7.2684e-35
2.04431e-36
5.83015e-38
1.70079e-39
4.89069e-41
1.36301e-42
3.68614e-44
9.47837e-46
2.27264e-47
5.03672e-49
1.03327e-50
1.89951e-52
3.07913e-54
4.31339e-56
5.08796e-58
4.85529e-60
3.51423e-62
1.7176e-64
4.13235e-67
3.71407e-36
1.029e-37
2.88916e-39
8.30016e-41
2.35042e-42
6.45347e-44
1.71808e-45
4.35048e-47
1.02844e-48
2.24833e-50
4.53506e-52
8.21426e-54
1.31473e-55
1.82221e-57
2.13986e-59
2.04196e-61
1.47899e-63
7.2394e-66
1.73696e-68
1.81287e-37
4.97651e-39
1.38263e-40
3.92686e-42
1.09887e-43
2.98158e-45
7.84812e-47
1.96596e-48
4.60045e-50
9.96138e-52
1.99e-53
3.574e-55
5.67915e-57
7.82443e-59
9.13199e-61
8.66473e-63
6.25278e-65
3.05585e-67
7.30453e-70
8.43733e-39
2.3085e-40
6.37901e-42
1.79917e-43
4.9953e-45
1.34419e-46
3.5085e-48
8.71618e-50
2.02349e-51
4.34925e-53
8.63217e-55
1.54137e-56
2.43711e-58
3.34408e-60
3.88956e-62
3.68104e-64
2.65266e-66
1.29639e-68
3.08863e-71
3.74131e-40
1.02625e-41
2.83473e-43
7.97527e-45
2.20568e-46
5.90719e-48
1.53376e-49
3.78954e-51
8.74987e-53
1.8709e-54
3.69529e-56
6.56964e-58
1.03485e-59
1.41561e-61
1.6428e-63
1.55254e-65
1.11815e-67
5.4674e-70
1.29802e-72
1.58104e-41
4.37223e-43
1.21311e-44
3.41913e-46
9.45561e-48
2.52904e-49
6.55215e-51
1.61447e-52
3.71657e-54
7.92247e-56
1.56015e-57
2.7661e-59
4.3467e-61
5.93433e-63
6.87675e-65
6.4932e-67
4.67527e-69
2.28765e-71
5.41034e-74
6.37579e-43
1.78665e-44
5.00193e-46
1.41806e-47
3.93573e-49
1.05473e-50
2.73461e-52
6.73752e-54
1.54997e-55
3.30069e-57
6.49232e-59
1.14969e-60
1.80465e-62
2.4616e-64
2.85078e-66
2.69107e-68
1.93791e-70
9.49078e-73
2.23537e-75
2.45896e-44
7.01371e-46
1.98936e-47
5.69406e-49
1.59139e-50
4.28618e-52
1.1152e-53
2.75418e-55
6.34582e-57
1.35264e-58
2.66199e-60
4.71526e-62
7.40254e-64
1.00985e-65
1.16972e-67
1.10453e-69
7.95798e-72
3.90145e-74
9.14881e-77
9.09612e-46
2.6507e-47
7.64418e-49
2.21634e-50
6.25683e-52
1.69844e-53
4.44603e-55
1.1032e-56
2.55108e-58
5.45288e-60
1.07542e-61
1.90807e-63
2.99942e-65
4.09616e-67
4.74901e-69
4.48813e-71
3.23627e-73
1.58846e-75
3.7076e-78
3.23803e-47
9.66902e-49
2.84357e-50
8.37602e-52
2.39508e-53
6.56953e-55
1.73429e-56
4.33288e-58
1.00752e-59
2.16323e-61
4.28182e-63
7.61937e-65
1.2006e-66
1.64279e-68
1.90767e-70
1.80526e-72
1.30316e-74
6.40433e-77
1.4875e-79
1.11302e-48
3.41352e-50
1.02635e-51
3.07927e-53
8.94064e-55
2.48375e-56
6.62664e-58
1.67021e-59
3.91216e-61
8.45066e-63
1.68107e-64
3.00373e-66
4.749e-68
6.51598e-70
7.58333e-72
7.18882e-74
5.19637e-76
2.5571e-78
5.90872e-81
3.70613e-50
1.16958e-51
3.60309e-53
1.10353e-54
3.26064e-56
9.19339e-58
2.4837e-59
6.32653e-61
1.49512e-62
3.25378e-64
6.5131e-66
1.1698e-67
1.85738e-69
2.55729e-71
2.9844e-73
2.83516e-75
2.05256e-77
1.01141e-79
2.32452e-82
1.19898e-51
3.89997e-53
1.23338e-54
3.86405e-56
1.16418e-57
3.33763e-59
9.14646e-61
2.35829e-62
5.63103e-64
1.2362e-65
2.49272e-67
4.50457e-69
7.18844e-71
9.9378e-73
1.16351e-74
1.10803e-76
8.03565e-79
3.96491e-81
9.06164e-84
3.77868e-53
1.26903e-54
4.12763e-56
1.32522e-57
4.07849e-59
1.19094e-60
3.31562e-62
8.66553e-64
2.09321e-65
4.64071e-67
9.43572e-69
1.717e-70
2.75573e-72
3.82739e-74
4.49738e-76
4.29459e-78
3.12033e-80
1.54164e-82
3.50299e-85
1.16312e-54
4.04078e-56
1.35417e-57
4.46326e-59
1.40541e-60
4.18608e-62
1.18558e-63
3.14468e-65
7.69296e-67
1.72405e-68
3.53756e-70
6.48659e-72
1.04766e-73
1.46248e-75
1.72533e-77
1.65237e-79
1.20293e-81
5.95071e-84
1.3441e-86
3.5064e-56
1.26274e-57
4.36798e-59
1.48031e-60
4.77605e-62
1.45296e-63
4.19111e-65
1.12938e-66
2.8006e-68
6.34943e-70
1.31567e-71
2.43235e-73
3.95517e-75
5.55139e-77
6.57686e-79
6.31834e-81
4.60911e-83
2.28277e-85
5.12467e-88
1.03852e-57
3.8853e-59
1.38963e-60
4.84954e-62
1.6052e-63
4.99309e-65
1.46829e-66
4.02301e-68
1.01198e-69
2.3225e-71
4.86248e-73
9.06757e-75
1.48498e-76
2.09623e-78
2.49446e-80
2.40412e-82
1.75739e-84
8.71339e-87
1.94392e-89
3.0331e-59
1.18132e-60
4.37553e-62
1.57437e-63
5.35181e-65
1.70362e-66
5.11097e-68
1.42477e-69
3.63753e-71
8.45444e-73
1.78911e-74
3.36632e-76
5.55367e-78
7.88601e-80
9.42685e-82
9.11522e-84
6.67688e-86
3.31377e-88
7.08905e-91
8.69788e-61
3.54147e-62
1.36227e-63
5.06848e-65
1.77419e-66
5.7912e-68
1.77343e-69
5.03198e-71
1.30435e-72
3.07105e-74
6.57029e-76
1.24758e-77
2.07368e-79
2.96222e-81
3.5573e-83
3.451e-85
2.53299e-87
1.25822e-89
2.67103e-92
1.9733e-62
7.47182e-64
2.75761e-65
9.60456e-67
3.12795e-68
9.70943e-70
3.04176e-71
8.80168e-73
2.32021e-74
5.54192e-76
1.2002e-77
2.30243e-79
3.85966e-81
5.55162e-83
6.70318e-85
6.52937e-87
4.80579e-89
2.39097e-91
2.67103e-92
)
;

boundaryField
{
    leftWall
    {
        type            zeroGradient;
    }
    rightWall
    {
        type            zeroGradient;
    }
    lowerWall
    {
        type            zeroGradient;
    }
    atmosphere
    {
        type            inletOutlet;
        inletValue      uniform 0;
        value           nonuniform List<scalar> 
46
(
0
0
0
0
0
0
0
0
0
0
0
0
0
0
0
0
0
0
0
0
5.83352e-57
4.54307e-55
7.9708e-56
6.52479e-57
3.31479e-58
1.21588e-59
4.94561e-61
1.9733e-62
7.47182e-64
2.75761e-65
9.60456e-67
3.12795e-68
9.70943e-70
3.04176e-71
8.80168e-73
2.32021e-74
5.54192e-76
1.2002e-77
2.30243e-79
3.85966e-81
5.55162e-83
6.70318e-85
6.52937e-87
4.80579e-89
2.39097e-91
2.67103e-92
)
;
    }
    defaultFaces
    {
        type            empty;
    }
}


// ************************************************************************* //
