/*--------------------------------*- C++ -*----------------------------------*\
| =========                 |                                                 |
| \\      /  F ield         | OpenFOAM: The Open Source CFD Toolbox           |
|  \\    /   O peration     | Version:  2206                                  |
|   \\  /    A nd           | Website:  www.openfoam.com                      |
|    \\/     M anipulation  |                                                 |
\*---------------------------------------------------------------------------*/
FoamFile
{
    version     2.0;
    format      ascii;
    arch        "LSB;label=32;scalar=64";
    class       surfaceScalarField;
    location    "0.05";
    object      alphaPhi0.water;
}
// * * * * * * * * * * * * * * * * * * * * * * * * * * * * * * * * * * * * * //

dimensions      [0 3 -1 0 0 0 0];

oriented        oriented;

internalField   nonuniform List<scalar> 
4432
(
2.85305e-06
-2.85305e-06
5.845e-06
-2.99187e-06
8.88201e-06
-3.03701e-06
1.2058e-05
-3.17601e-06
1.54402e-05
-3.38212e-06
1.91097e-05
-3.66949e-06
2.31757e-05
-4.06597e-06
2.77946e-05
-4.61896e-06
3.32084e-05
-5.41381e-06
3.9798e-05
-6.58951e-06
4.84088e-05
-8.61079e-06
5.93374e-05
-1.09286e-05
7.50924e-05
-1.65095e-05
5.85867e-05
-1.60731e-05
6.67377e-06
-2.05385e-06
2.64608e-06
2.95352e-07
8.6926e-07
3.64659e-07
1.90589e-07
2.58711e-07
2.89285e-08
6.97817e-08
3.41337e-09
1.10929e-08
4.96424e-10
1.40884e-09
1.65516e-10
1.59721e-10
8.71074e-12
2.84843e-06
-5.70142e-06
5.83325e-06
-5.9766e-06
8.86269e-06
-6.06648e-06
1.20285e-05
-6.34182e-06
1.53964e-05
-6.75e-06
1.90454e-05
-7.31849e-06
2.3081e-05
-8.10164e-06
2.76531e-05
-9.19103e-06
3.29804e-05
-1.07412e-05
3.94446e-05
-1.30536e-05
4.75208e-05
-1.6687e-05
5.76638e-05
-2.10716e-05
6.4364e-05
-3.07074e-05
3.33533e-05
-2.76312e-05
4.96451e-06
-5.3724e-06
2.25295e-06
-1.88279e-07
7.51323e-07
4.45812e-07
1.8155e-07
3.58083e-07
3.16412e-08
1.10221e-07
3.93039e-09
2.09048e-08
5.17531e-10
2.87247e-09
1.22663e-10
3.73952e-10
2.24864e-11
2.83103e-06
-8.53247e-06
5.79392e-06
-8.93948e-06
8.79991e-06
-9.07248e-06
1.19373e-05
-9.47922e-06
1.52688e-05
-1.00815e-05
1.88684e-05
-1.09181e-05
2.28339e-05
-1.20671e-05
2.72993e-05
-1.36565e-05
3.24525e-05
-1.58944e-05
3.861e-05
-1.92111e-05
4.60718e-05
-2.41489e-05
5.58685e-05
-3.08682e-05
5.21329e-05
-4.37054e-05
8.85866e-06
-2.45273e-05
2.85704e-06
-4.31759e-06
1.10126e-06
-1.65762e-07
3.0852e-07
2.3302e-07
4.78695e-08
1.48548e-07
-5.89223e-09
4.20867e-08
-6.56582e-10
5.57416e-09
-1.634e-11
1.08593e-09
5.37335e-11
1.9699e-10
1.75238e-11
2.80473e-06
-1.13373e-05
5.73514e-06
-1.18699e-05
8.70632e-06
-1.20436e-05
1.18018e-05
-1.25747e-05
1.50799e-05
-1.33596e-05
1.86077e-05
-1.44459e-05
2.24716e-05
-1.5931e-05
2.6785e-05
-1.79698e-05
3.16984e-05
-2.08078e-05
3.74405e-05
-2.49532e-05
4.41854e-05
-3.08938e-05
5.2765e-05
-3.94478e-05
3.91402e-05
-5.27634e-05
4.49924e-06
-1.88149e-05
1.59554e-06
-3.32471e-06
4.5654e-07
7.55447e-08
1.16307e-07
1.80225e-07
2.28408e-08
5.33007e-08
2.14777e-09
8.91394e-09
-2.83071e-11
2.23735e-09
-7.86651e-12
4.84068e-10
2.56628e-11
1.04935e-10
1.21629e-11
2.76989e-06
-1.41072e-05
5.65784e-06
-1.47579e-05
8.58344e-06
-1.49692e-05
1.16245e-05
-1.56158e-05
1.48338e-05
-1.65689e-05
1.827e-05
-1.78821e-05
2.20058e-05
-1.96668e-05
2.61316e-05
-2.20956e-05
3.07559e-05
-2.54321e-05
3.60213e-05
-3.02185e-05
4.19769e-05
-3.68494e-05
4.90696e-05
-4.65405e-05
2.8672e-05
-5.74453e-05
3.09097e-06
-1.47334e-05
6.90159e-07
-2.11999e-06
1.39801e-07
1.74921e-07
3.64007e-08
1.08089e-07
9.07761e-09
2.76542e-08
9.27251e-10
4.74225e-09
-3.72861e-13
9.70318e-10
-9.77017e-12
2.13683e-10
1.21107e-11
5.20735e-11
7.66203e-12
2.72696e-06
-1.68342e-05
5.56325e-06
-1.75943e-05
8.43338e-06
-1.78393e-05
1.14087e-05
-1.85911e-05
1.45356e-05
-1.96958e-05
1.78635e-05
-2.121e-05
2.14506e-05
-2.32539e-05
2.53635e-05
-2.60085e-05
2.9668e-05
-2.97367e-05
3.44348e-05
-3.49853e-05
3.95864e-05
-4.2001e-05
4.53174e-05
-5.22715e-05
2.06603e-05
-5.87928e-05
2.08892e-06
-1.13461e-05
2.69801e-07
-1.05813e-06
3.54888e-08
1.88987e-07
1.02197e-08
5.76956e-08
3.12368e-09
1.26156e-08
4.34962e-10
2.23701e-09
7.71988e-12
4.35826e-10
-5.35993e-12
9.46353e-11
5.77845e-12
2.43503e-11
4.32414e-12
2.67685e-06
-1.9511e-05
5.45323e-06
-2.03707e-05
8.25935e-06
-2.06454e-05
1.11594e-05
-2.14911e-05
1.41929e-05
-2.27293e-05
1.74002e-05
-2.44173e-05
2.08244e-05
-2.66782e-05
2.45098e-05
-2.96938e-05
2.84846e-05
-3.37115e-05
3.27595e-05
-3.92602e-05
3.71279e-05
-4.63695e-05
4.16615e-05
-5.68051e-05
1.46763e-05
-5.83526e-05
1.27487e-06
-8.73355e-06
7.99886e-08
-3.28554e-07
8.5853e-09
1.54879e-07
3.39912e-09
3.08592e-08
1.16133e-09
5.79628e-09
1.91086e-10
1.06329e-09
8.55063e-12
2.03442e-10
-2.10108e-12
4.30683e-11
2.47251e-12
1.06618e-11
2.13134e-12
2.62065e-06
-2.21316e-05
5.32864e-06
-2.30788e-05
8.06342e-06
-2.33801e-05
1.08805e-05
-2.43083e-05
1.38124e-05
-2.56613e-05
1.68904e-05
-2.74953e-05
2.01444e-05
-2.99321e-05
2.35983e-05
-3.31477e-05
2.7255e-05
-3.73683e-05
3.10948e-05
-4.31e-05
3.46984e-05
-4.99731e-05
3.81903e-05
-6.0297e-05
1.06365e-05
-5.73461e-05
6.76643e-07
-7.01184e-06
1.24921e-08
5.35372e-08
1.41785e-09
1.1412e-07
1.04333e-09
1.75594e-08
3.80976e-10
2.77591e-09
7.22536e-11
4.96976e-10
4.7965e-12
9.35088e-11
-1.04181e-12
1.94919e-11
5.30752e-13
4.42397e-12
1.0613e-12
5.9479e-31
-5.22714e-30
8.36155e-33
-1.05428e-31
3.99634e-34
-2.80426e-33
3.53693e-35
-8.20793e-35
7.72664e-37
-5.68389e-36
6.41145e-39
-2.07273e-38
1.19999e-40
7.15729e-41
2.90375e-42
2.91773e-42
6.1145e-44
9.49059e-44
1.17769e-45
2.51868e-45
2.01001e-47
5.75152e-47
2.97783e-49
1.14169e-48
3.73092e-51
1.95992e-50
3.81655e-53
2.86788e-52
3.02857e-55
3.48911e-54
1.71721e-57
3.3933e-56
8.29824e-60
2.47525e-58
2.37701e-60
1.21102e-60
5.80186e-63
7.01821e-29
-3.40544e-28
1.31355e-30
-2.11188e-29
4.73064e-32
-5.61896e-31
3.60608e-33
-1.53038e-32
8.24523e-35
-5.91307e-34
8.35273e-37
-2.03723e-36
1.82043e-38
3.68386e-38
4.23727e-40
1.6542e-39
9.16277e-42
5.47224e-41
1.80228e-43
1.48031e-42
3.14092e-45
3.44521e-44
4.75089e-47
6.975e-46
6.07718e-49
1.2227e-47
6.3473e-51
1.82778e-49
5.14289e-53
2.271e-51
2.97763e-55
2.25549e-53
1.06606e-57
1.68425e-55
4.47878e-60
8.45011e-58
2.1167e-60
4.35301e-27
-2.8201e-26
7.71495e-29
-1.76251e-27
2.80522e-30
-4.65025e-29
1.86768e-31
-1.1856e-30
4.61836e-33
-3.29747e-32
5.1142e-35
-8.9809e-35
1.21381e-36
3.56798e-36
2.85908e-38
1.71062e-37
6.20868e-40
5.58896e-39
1.21924e-41
1.5035e-40
2.1198e-43
3.48844e-42
3.19749e-45
7.04511e-44
4.07762e-47
1.23128e-45
4.24473e-49
1.83392e-47
3.42789e-51
2.2767e-49
2.23251e-53
2.25591e-51
9.74935e-56
1.67733e-53
4.22318e-58
8.40393e-56
2.12923e-58
1.8247e-25
-1.4118e-24
3.22369e-27
-8.90076e-26
1.12199e-28
-2.30279e-27
5.99278e-30
-5.47133e-29
1.59248e-31
-1.1093e-30
2.11069e-33
-1.00875e-33
5.66238e-35
2.3434e-34
1.3317e-36
1.08255e-35
2.90873e-38
3.49756e-37
5.71869e-40
9.38016e-39
9.94499e-42
2.17343e-40
1.49941e-43
4.38451e-42
1.91024e-45
7.66313e-44
2.13326e-47
1.14276e-45
1.9258e-49
1.41602e-47
1.2928e-51
1.40228e-49
5.80203e-54
1.0405e-51
2.72598e-56
5.23744e-54
1.33194e-56
5.74428e-24
-4.8504e-23
1.03595e-25
-3.08538e-24
3.35245e-27
-7.75702e-26
1.38203e-28
-1.71387e-27
3.78144e-30
-2.58699e-29
7.30963e-32
4.70605e-32
1.98319e-33
1.12254e-32
4.72666e-35
4.88678e-34
1.03706e-36
1.55998e-35
2.04327e-38
4.17065e-37
3.55674e-40
9.65556e-39
5.55028e-42
1.95045e-40
7.68059e-44
3.41085e-42
8.81287e-46
5.08596e-44
8.04395e-48
6.29764e-46
5.47109e-50
6.22526e-48
2.51319e-52
4.61092e-50
1.24724e-54
2.35882e-52
5.96417e-55
1.41578e-22
-1.23978e-21
2.65095e-24
-7.79159e-23
7.82039e-26
-1.88674e-24
2.77272e-27
-3.84005e-26
7.76572e-29
-4.42666e-28
2.0361e-30
3.80894e-30
5.4148e-32
4.01391e-31
1.31389e-33
1.65557e-32
2.8967e-35
5.22222e-34
5.72359e-37
1.3923e-35
1.05903e-38
3.22707e-37
1.73152e-40
6.52294e-39
2.4136e-42
1.14163e-40
2.78943e-44
1.7012e-42
2.56595e-46
2.1039e-44
1.76121e-48
2.07668e-46
8.3294e-51
1.53626e-48
4.33525e-53
7.89264e-51
2.01003e-53
3.00714e-21
-1.6255e-19
5.34649e-23
-7.52846e-21
1.47913e-24
-7.55325e-23
5.10101e-26
-9.94044e-25
1.51536e-27
-6.78913e-27
4.30109e-29
1.50427e-28
1.15183e-30
1.06776e-29
2.82008e-32
4.19952e-31
6.25112e-34
1.30988e-32
1.31857e-35
3.48394e-34
2.49638e-37
8.08941e-36
4.10656e-39
1.63581e-37
5.75518e-41
2.86262e-39
6.68656e-43
4.26261e-41
6.18547e-45
5.26631e-43
4.27393e-47
5.1923e-45
2.04907e-49
3.83684e-47
1.16149e-51
1.97036e-49
5.09448e-52
1.05874e-19
-1.77349e-18
9.59647e-22
-7.45245e-20
2.45911e-23
-1.81718e-21
8.02097e-25
-3.26317e-23
2.3593e-26
-1.08343e-25
6.9576e-28
3.67799e-27
1.88863e-29
2.08458e-28
4.66283e-31
7.89052e-30
1.07541e-32
2.43964e-31
2.32894e-34
6.48837e-33
4.43576e-36
1.50665e-34
7.33023e-38
3.05043e-36
1.03147e-39
5.33935e-38
1.20305e-41
7.95039e-40
1.11739e-43
9.82001e-42
7.75574e-46
9.67847e-44
3.74252e-48
7.14869e-46
2.38593e-50
3.6673e-48
9.67333e-51
5.36304e-06
-2.74947e-05
1.08776e-05
-2.85934e-05
1.64351e-05
-2.89376e-05
2.21299e-05
-3.00031e-05
2.80089e-05
-3.15402e-05
3.41115e-05
-3.35979e-05
4.04651e-05
-3.62857e-05
4.70702e-05
-3.97528e-05
5.38893e-05
-4.41874e-05
6.069e-05
-4.99007e-05
6.75879e-05
-5.68711e-05
7.33213e-05
-6.60305e-05
1.48299e-05
-5.28503e-05
4.79322e-07
-3.896e-06
-1.82243e-08
2.72269e-07
-2.30387e-09
5.74378e-08
1.74497e-10
6.70866e-09
1.18767e-10
8.48706e-10
3.02022e-11
1.28154e-10
3.68679e-12
2.231e-11
-4.00377e-13
4.28666e-12
-3.0598e-13
9.01796e-13
2.11169e-13
1.08047e-13
5.02953e-06
-3.25242e-05
1.01606e-05
-3.37244e-05
1.53165e-05
-3.40935e-05
2.05566e-05
-3.52432e-05
2.59008e-05
-3.68844e-05
3.1357e-05
-3.90541e-05
3.69131e-05
-4.18419e-05
4.25226e-05
-4.53623e-05
4.80854e-05
-4.97502e-05
5.33872e-05
-5.52025e-05
5.81935e-05
-6.16773e-05
6.18079e-05
-6.96448e-05
6.88155e-06
-4.67781e-05
7.44022e-08
-2.18185e-06
-1.1155e-08
2.32228e-07
-7.57057e-10
3.05247e-08
1.00241e-10
3.14355e-09
4.68837e-11
3.63656e-10
1.2244e-11
4.78197e-11
2.62789e-12
7.24365e-12
3.99147e-13
1.23945e-12
1.77504e-14
2.269e-13
4.15799e-14
3.53703e-14
4.66498e-06
-3.71892e-05
9.38428e-06
-3.84437e-05
1.41133e-05
-3.88226e-05
1.88803e-05
-4.00102e-05
2.36841e-05
-4.16882e-05
2.85101e-05
-4.38802e-05
3.33219e-05
-4.66537e-05
3.80487e-05
-5.00891e-05
4.25705e-05
-5.4272e-05
4.66862e-05
-5.93182e-05
5.01362e-05
-6.51273e-05
5.25008e-05
-7.20094e-05
3.43341e-06
-4.0852e-05
-1.77324e-08
-1.13586e-06
-9.33828e-09
1.66151e-07
-8.66705e-10
1.52665e-08
-6.06031e-11
1.37687e-09
1.53609e-13
1.43325e-10
1.30936e-12
1.67286e-11
4.06235e-13
2.16399e-12
9.78116e-14
3.11506e-13
1.85376e-14
5.16157e-14
9.34852e-15
1.30197e-14
4.28298e-06
-4.14721e-05
8.57939e-06
-4.27401e-05
1.28739e-05
-4.31171e-05
1.7169e-05
-4.43053e-05
2.14482e-05
-4.59674e-05
2.56832e-05
-4.81152e-05
2.98249e-05
-5.07954e-05
3.37948e-05
-5.4059e-05
3.74755e-05
-5.79527e-05
4.06933e-05
-6.25359e-05
4.32402e-05
-6.76742e-05
4.48498e-05
-7.3619e-05
1.43894e-06
-3.55255e-05
-2.92671e-08
-5.10469e-07
-4.63202e-09
1.11318e-07
-4.10294e-10
8.00124e-09
-3.54451e-11
6.29778e-10
-2.34133e-12
5.81798e-11
4.53869e-14
6.03526e-12
6.99747e-14
6.75178e-13
2.46229e-14
8.55183e-14
8.10714e-15
1.18194e-14
2.30986e-15
2.83995e-15
3.89575e-06
-4.53679e-05
7.77159e-06
-4.6616e-05
1.16375e-05
-4.69831e-05
1.54759e-05
-4.81436e-05
1.92606e-05
-4.97522e-05
2.2956e-05
-5.18106e-05
2.65087e-05
-5.43481e-05
2.98424e-05
-5.73926e-05
3.28531e-05
-6.09634e-05
3.54005e-05
-6.50833e-05
3.73338e-05
-6.96076e-05
3.84889e-05
-7.47742e-05
5.39425e-07
-3.08536e-05
-2.8599e-08
-1.48249e-07
-2.73372e-09
6.98576e-08
-2.11738e-10
4.07328e-09
-1.78323e-11
2.86583e-10
-1.44812e-12
2.36969e-11
-7.36789e-14
2.19357e-12
9.39855e-15
2.17095e-13
4.8587e-15
2.49551e-14
1.96672e-15
3.31247e-15
4.90565e-16
5.30295e-16
3.51301e-06
-4.88809e-05
6.98057e-06
-5.00836e-05
1.04335e-05
-5.0436e-05
1.38393e-05
-5.15494e-05
1.71668e-05
-5.30797e-05
2.03774e-05
-5.50211e-05
2.34189e-05
-5.73895e-05
2.62221e-05
-6.01959e-05
2.86999e-05
-6.34411e-05
3.07427e-05
-6.71262e-05
3.2245e-05
-7.11099e-05
3.31038e-05
-7.5633e-05
3.78986e-07
-2.67545e-05
-2.42462e-08
1.53999e-07
-1.59454e-09
4.05017e-08
-1.07826e-10
2.01091e-09
-8.43785e-12
1.30251e-10
-6.74581e-13
9.70744e-12
-4.13378e-14
8.05062e-13
8.74575e-16
7.47698e-14
2.00169e-15
7.05486e-15
4.50946e-16
9.43174e-16
1.06262e-16
9.1836e-17
3.14203e-06
-5.2023e-05
6.22025e-06
-5.31618e-05
9.28183e-06
-5.34976e-05
1.22842e-05
-5.45518e-05
1.5194e-05
-5.59895e-05
1.79732e-05
-5.78003e-05
2.05734e-05
-5.99896e-05
2.29344e-05
-6.2557e-05
2.49851e-05
-6.54918e-05
2.66415e-05
-6.87825e-05
2.78299e-05
-7.22984e-05
2.84816e-05
-7.62847e-05
2.23429e-07
-2.31486e-05
-1.48189e-08
3.46535e-07
-7.55998e-10
2.41196e-08
-4.80725e-11
1.09741e-09
-3.6074e-12
6.4151e-11
-2.71749e-13
4.31884e-12
-1.62052e-14
3.19616e-13
9.12383e-17
2.65689e-14
5.91681e-16
2.33001e-15
9.81504e-17
2.51954e-16
2.44944e-17
1.68203e-17
2.78771e-06
-5.48107e-05
5.49945e-06
-5.58735e-05
8.1946e-06
-5.61927e-05
1.08244e-05
-5.71815e-05
1.33557e-05
-5.85209e-05
1.57527e-05
-6.01972e-05
1.79719e-05
-6.22089e-05
1.99626e-05
-6.45477e-05
2.16674e-05
-6.71965e-05
2.30218e-05
-7.01369e-05
2.39746e-05
-7.32512e-05
2.44763e-05
-7.67864e-05
7.68701e-08
-1.99751e-05
-6.17547e-09
4.00813e-07
-3.08878e-10
1.72351e-08
-2.00531e-11
7.26964e-10
-1.45913e-12
3.82196e-11
-1.01977e-13
2.25448e-12
-5.43089e-15
1.43589e-13
6.82568e-16
1.01922e-14
1.75491e-16
8.52015e-16
1.96966e-17
7.25575e-17
6.09852e-18
3.28961e-18
2.45293e-06
-5.72636e-05
4.82277e-06
-5.82434e-05
7.17755e-06
-5.85475e-05
9.46535e-06
-5.94693e-05
1.1655e-05
-6.07105e-05
1.37135e-05
-6.22556e-05
1.56031e-05
-6.40985e-05
1.72813e-05
-6.6226e-05
1.87022e-05
-6.86174e-05
1.98162e-05
-7.12509e-05
2.05874e-05
-7.40224e-05
2.09775e-05
-7.71764e-05
-7.94297e-09
-1.71858e-05
-2.94525e-09
3.69808e-07
-1.48635e-10
1.34964e-08
-9.38559e-12
5.30792e-10
-6.45414e-13
2.551e-11
-4.03556e-14
1.33622e-12
-1.92744e-15
7.30303e-14
3.31887e-16
4.37153e-15
5.21056e-17
3.19884e-16
4.42975e-18
2.31698e-17
1.6678e-18
6.96866e-19
2.13891e-06
-5.94025e-05
4.19145e-06
-6.02959e-05
6.23158e-06
-6.05876e-05
8.20649e-06
-6.14442e-05
1.00877e-05
-6.25917e-05
1.1846e-05
-6.40139e-05
1.34488e-05
-6.57012e-05
1.48609e-05
-6.76381e-05
1.60458e-05
-6.98023e-05
1.69654e-05
-7.21704e-05
1.75938e-05
-7.46509e-05
1.79001e-05
-7.74826e-05
-4.46954e-08
-1.47388e-05
-2.70781e-09
3.05084e-07
-1.10232e-10
9.94807e-09
-5.92476e-12
3.77831e-10
-3.54772e-13
1.71972e-11
-1.90301e-14
8.25726e-13
-8.15628e-16
3.95161e-14
1.39757e-16
2.03045e-15
1.62998e-17
1.32137e-16
1.09638e-18
8.12608e-18
4.99482e-19
1.61551e-19
1.84567e-06
-6.12481e-05
3.60443e-06
-6.20547e-05
5.35424e-06
-6.23374e-05
7.04314e-06
-6.31331e-05
8.64557e-06
-6.41941e-05
1.01363e-05
-6.55046e-05
1.14877e-05
-6.70526e-05
1.26708e-05
-6.88212e-05
1.36567e-05
-7.0788e-05
1.44158e-05
-7.29295e-05
1.49308e-05
-7.51659e-05
1.51726e-05
-7.77243e-05
-5.5728e-08
-1.25875e-05
-2.48877e-09
2.33907e-07
-8.99939e-11
7.14538e-09
-4.28337e-12
2.52647e-10
-2.26069e-13
1.10922e-11
-1.06393e-14
4.9757e-13
-4.50432e-16
2.14771e-14
5.81174e-17
9.77052e-16
5.36594e-18
5.67671e-17
2.91036e-19
2.99032e-18
1.57977e-19
4.02868e-20
1.57252e-06
-6.28206e-05
3.0593e-06
-6.35414e-05
4.54116e-06
-6.38192e-05
5.96853e-06
-6.45604e-05
7.31835e-06
-6.55439e-05
8.56943e-06
-6.67557e-05
9.69857e-06
-6.81817e-05
1.06821e-05
-6.98047e-05
1.14966e-05
-7.16023e-05
1.21179e-05
-7.35507e-05
1.25395e-05
-7.55872e-05
1.27266e-05
-7.79112e-05
-5.45279e-08
-1.06994e-05
-1.83471e-09
1.6828e-07
-6.25614e-11
4.80321e-09
-2.77899e-12
1.70067e-10
-1.36407e-13
7.12838e-12
-5.93209e-15
2.97921e-13
-2.09082e-16
1.1709e-14
2.38998e-17
4.92497e-16
1.70112e-18
2.44569e-17
7.91518e-20
1.10789e-18
5.035e-20
1.034e-20
1.3175e-06
-6.41379e-05
2.5523e-06
-6.47759e-05
3.78633e-06
-6.50529e-05
4.97318e-06
-6.57469e-05
6.09276e-06
-6.66631e-05
7.12721e-06
-6.77898e-05
8.05764e-06
-6.91116e-05
8.86534e-06
-7.06119e-05
9.5309e-06
-7.22672e-05
1.00329e-05
-7.4052e-05
1.03725e-05
-7.59259e-05
1.04816e-05
-7.80186e-05
-4.53511e-08
-9.05984e-06
-9.83505e-10
1.14803e-07
-3.1569e-11
3.37558e-09
-1.40269e-12
1.20074e-10
-6.76489e-14
4.87998e-12
-2.80906e-15
1.92395e-13
-1.24747e-17
6.81445e-15
9.86563e-18
2.61535e-16
4.97107e-19
1.06293e-17
2.105e-20
4.08073e-19
1.56787e-20
2.59806e-21
1.07859e-06
-6.52147e-05
2.07819e-06
-6.57737e-05
3.08135e-06
-6.60541e-05
4.04371e-06
-6.67074e-05
4.95018e-06
-6.75674e-05
5.78602e-06
-6.86232e-05
6.53612e-06
-6.98592e-05
7.18586e-06
-7.12587e-05
7.71964e-06
-7.27976e-05
8.12828e-06
-7.44567e-05
8.42327e-06
-7.62162e-05
8.33222e-06
-7.79193e-05
-2.98227e-08
-7.6241e-06
-2.14782e-10
7.79783e-08
-2.80018e-12
2.88494e-09
-1.41379e-13
1.05997e-10
-1.58651e-14
4.21664e-12
-8.63819e-16
1.52158e-13
1.18906e-17
4.83901e-15
3.85864e-18
1.5102e-16
1.50989e-19
4.99252e-18
5.29372e-21
1.53892e-19
4.76047e-21
6.16943e-22
8.65227e-07
-6.60695e-05
1.63534e-06
-6.65331e-05
2.42068e-06
-6.68283e-05
3.17506e-06
-6.74502e-05
3.88685e-06
-6.82668e-05
4.5428e-06
-6.92657e-05
5.13034e-06
-7.0432e-05
5.63555e-06
-7.17475e-05
6.03567e-06
-7.31795e-05
6.32521e-06
-7.47249e-05
6.58372e-06
-7.64501e-05
5.82824e-06
-7.71213e-05
-4.14169e-08
-6.19043e-06
-9.6484e-11
3.16707e-08
1.1013e-11
2.50589e-09
6.625e-13
1.02527e-10
1.67762e-14
4.78366e-12
-2.92735e-16
1.83047e-13
3.68825e-18
3.89884e-15
1.56648e-18
9.63967e-17
4.61537e-20
2.41781e-18
1.22429e-21
5.62119e-20
1.3221e-21
1.34488e-22
6.48891e-07
-6.66579e-05
1.21991e-06
-6.70421e-05
1.82046e-06
-6.73653e-05
2.39112e-06
-6.79546e-05
2.92963e-06
-6.87354e-05
3.42983e-06
-6.96911e-05
3.88507e-06
-7.08064e-05
4.28298e-06
-7.20571e-05
4.59046e-06
-7.339e-05
4.71085e-06
-7.47351e-05
4.59355e-06
-7.62072e-05
1.93322e-06
-7.42487e-05
-3.71566e-09
-7.63408e-06
-1.44543e-09
3.65007e-09
-2.63665e-11
1.0901e-09
-2.46449e-13
7.44841e-11
-1.1726e-14
4.37212e-12
-1.66486e-15
1.70009e-13
1.03233e-17
2.88632e-15
6.33206e-19
4.41808e-17
9.54116e-21
7.96526e-19
1.98682e-22
1.38472e-20
2.51275e-22
2.08644e-23
4.82252e-07
-6.68029e-05
8.84473e-07
-6.71008e-05
1.306e-06
-6.74359e-05
1.71644e-06
-6.80019e-05
2.10546e-06
-6.87447e-05
2.46931e-06
-6.96539e-05
2.80671e-06
-7.07163e-05
3.11754e-06
-7.19085e-05
3.4304e-06
-7.32072e-05
3.62355e-06
-7.43732e-05
3.42007e-06
-7.53853e-05
3.04733e-06
-7.2844e-05
-3.59963e-08
-1.70908e-05
2.3793e-09
-3.85593e-08
2.43657e-10
3.38539e-09
1.38399e-11
3.07251e-10
3.11069e-13
1.78926e-11
3.49285e-16
4.78271e-13
2.07115e-18
3.22912e-15
7.14004e-20
4.29955e-17
1.23293e-21
1.67531e-19
1.41646e-23
1.94896e-21
2.77496e-23
1.55158e-24
2.64718e-07
-5.23139e-05
4.96511e-07
-5.23938e-05
7.40707e-07
-5.24372e-05
9.72096e-07
-5.25261e-05
1.18604e-06
-5.26229e-05
1.37498e-06
-5.27115e-05
1.52585e-06
-5.27586e-05
1.63776e-06
-5.27123e-05
1.74558e-06
-5.27066e-05
2.31704e-06
-5.15904e-05
3.18919e-06
-5.0207e-05
1.00591e-05
-3.55977e-05
-5.85223e-07
-1.36315e-05
9.51005e-08
-6.42794e-07
1.04788e-08
9.21581e-08
5.90891e-10
1.02536e-08
1.50316e-11
5.87767e-10
1.05108e-13
1.50967e-11
2.77451e-16
1.07062e-13
-2.74651e-20
3.3389e-16
-2.64062e-23
1.56299e-20
-3.74369e-25
1.55427e-22
2.14422e-24
-3.00736e-27
-1.04567e-07
-1.53788e-24
-2.41346e-07
-3.01182e-22
-3.57103e-07
-1.90291e-20
-4.79859e-07
-7.90678e-19
-6.0197e-07
-2.41642e-17
-7.19624e-07
-5.75468e-16
-8.10722e-07
-1.09183e-14
-8.39309e-07
-1.68568e-13
-9.12451e-07
-2.24235e-12
-2.0981e-08
-2.68708e-11
2.10953e-06
-2.80191e-10
1.60737e-06
-2.90384e-09
3.67911e-06
-2.53011e-08
1.34358e-07
-1.32197e-07
3.76751e-08
1.88172e-07
2.75768e-09
4.39295e-08
3.43526e-11
3.26592e-09
-9.27599e-14
4.95024e-11
-3.00592e-16
1.45585e-14
-1.78577e-20
3.35967e-17
-2.09247e-23
1.5361e-21
-2.16589e-25
1.41679e-23
1.90145e-25
-2.47628e-27
-1.81568e-24
-5.2262e-25
-2.32934e-22
-7.15418e-23
-1.45447e-20
-4.81238e-21
-5.90713e-19
-2.20361e-19
-1.74365e-17
-7.55325e-18
-3.94246e-16
-2.05525e-16
-7.00145e-15
-4.466e-15
-9.81672e-14
-8.01908e-14
-1.03246e-12
-1.349e-12
-6.78613e-12
-2.16106e-11
4.8135e-13
-2.92499e-10
7.24419e-11
-3.01663e-09
3.04371e-10
-2.57852e-08
7.47631e-08
-5.2438e-08
-2.11089e-08
9.97151e-08
-2.4811e-09
2.0514e-08
-4.51735e-11
6.36935e-10
-1.32925e-14
4.41917e-12
-3.10791e-17
1.29061e-15
-1.0442e-21
2.63644e-18
-4.23784e-24
1.70202e-22
-3.82906e-26
1.35436e-24
1.68671e-26
-4.11369e-28
-5.8856e-25
-6.53985e-26
-6.2467e-23
-1.04637e-23
-4.26271e-21
-6.99086e-22
-1.99277e-19
-3.12051e-20
-6.97532e-18
-1.03908e-18
-1.93788e-16
-2.73968e-17
-4.29598e-15
-5.9044e-16
-7.88103e-14
-1.04986e-14
-1.34313e-12
-1.69946e-13
-2.17943e-11
-2.42389e-12
-3.05357e-10
-2.88061e-11
-3.14695e-09
-3.14397e-10
-2.76314e-08
-1.25478e-09
-6.2253e-08
-2.58174e-09
-1.27849e-08
4.13251e-09
-4.45387e-10
1.70908e-09
-3.63443e-12
9.53263e-11
-1.15033e-15
7.96639e-13
-2.43736e-18
1.94907e-16
-6.8739e-23
2.20671e-19
-4.9885e-25
1.27218e-23
-5.00145e-27
1.16083e-25
1.36341e-27
-5.00623e-29
-6.83264e-26
-2.97868e-27
-1.01775e-23
-4.85923e-25
-6.94421e-22
-3.12711e-23
-3.16434e-20
-1.34117e-21
-1.07527e-18
-4.27641e-20
-2.89147e-17
-1.07477e-18
-6.27835e-16
-2.22904e-17
-1.11865e-14
-4.23846e-16
-1.77197e-13
-1.0353e-14
-2.50232e-12
-1.68527e-13
-3.01481e-11
-1.78105e-12
-3.33833e-10
-1.51333e-11
-2.17315e-09
-4.90799e-11
-5.47456e-09
-1.90222e-10
-1.67285e-09
1.77993e-10
-8.92424e-11
9.44074e-11
-7.38167e-13
6.72291e-12
-1.86013e-16
7.12672e-14
-2.46147e-19
1.62234e-17
-8.22749e-24
8.52036e-21
-5.7046e-26
1.00723e-24
-5.35986e-28
8.83045e-27
9.98249e-29
-5.06493e-30
-3.01523e-27
-3.67535e-29
-4.88861e-25
-5.93234e-27
-3.19764e-23
-3.7541e-25
-1.38027e-21
-1.58504e-23
-4.43202e-20
-4.96856e-22
-1.12192e-18
-1.22436e-20
-2.34286e-17
-2.47541e-19
-4.46401e-16
-4.33828e-18
-1.07304e-14
-9.19089e-17
-1.77061e-13
-2.0939e-15
-1.92933e-12
-2.39586e-14
-1.6782e-11
-2.03444e-13
-7.6966e-11
-7.34383e-13
-2.65167e-10
-6.52209e-12
-9.33102e-11
2.21715e-12
-6.48697e-12
4.05294e-12
-6.78134e-14
3.01583e-13
-1.67197e-17
5.13284e-15
-8.60136e-21
1.13591e-18
-7.53305e-25
4.31736e-22
-5.45989e-27
6.72501e-26
-4.85552e-29
5.89031e-28
6.54078e-30
-4.41327e-31
-3.68396e-29
-9.2899e-32
-5.95389e-27
-1.49309e-29
-3.73443e-25
-9.49261e-28
-1.57559e-23
-4.05424e-26
-4.9413e-22
-1.28547e-24
-1.22e-20
-3.20582e-23
-2.47269e-19
-6.54111e-22
-4.34662e-18
-1.11938e-20
-9.16402e-17
-1.77274e-19
-2.07882e-15
-3.50711e-18
-2.4693e-14
-7.14483e-17
-2.18118e-13
-8.16259e-16
-8.12249e-13
-3.99587e-15
-6.3026e-12
-3.98186e-14
-4.06535e-12
-4.67595e-14
-2.98515e-13
8.72637e-14
-5.24692e-15
8.77589e-15
-1.32758e-18
1.17445e-16
-4.16016e-22
3.6311e-20
-5.84732e-26
2.60876e-23
-4.28811e-28
4.18204e-27
-3.7654e-30
3.44546e-29
3.80238e-31
-3.35619e-32
-8.18653e-32
-2.42427e-34
-9.7312e-30
-2.73885e-32
-6.55649e-28
-1.82183e-30
-2.93461e-26
-8.03754e-29
-9.73386e-25
-2.62494e-27
-2.53699e-23
-6.73413e-26
-5.36363e-22
-1.40259e-24
-9.60934e-21
-2.46216e-23
-1.57414e-19
-3.7233e-22
-3.04238e-18
-4.7013e-21
-6.607e-17
-5.66161e-20
-8.29254e-16
-8.42757e-19
-4.72656e-15
-1.00312e-17
-4.44837e-14
-1.40597e-16
-9.16444e-14
-3.30111e-16
-8.94799e-15
8.98011e-16
-1.35332e-16
1.86423e-16
-3.74791e-20
2.23152e-18
-2.47827e-23
6.56907e-22
-3.85981e-27
1.28338e-24
-2.89817e-29
2.25233e-28
-2.5364e-31
1.84281e-30
1.94972e-32
-2.24039e-33
-2.02374e-34
-5.85414e-37
-2.76158e-32
-8.2415e-35
-1.85464e-30
-5.68015e-33
-8.24028e-29
-2.59034e-31
-2.71246e-27
-8.75646e-30
-7.02401e-26
-2.33148e-28
-1.47673e-24
-5.05047e-27
-2.58765e-23
-9.14651e-26
-3.84062e-22
-1.40719e-24
-4.89526e-21
-1.85441e-23
-5.9452e-20
-2.17607e-22
-8.57314e-19
-2.13838e-21
-1.09055e-17
-1.41561e-20
-2.17353e-16
-9.37961e-20
-1.05558e-15
-4.7897e-19
-1.81488e-16
4.51214e-18
-2.15956e-18
3.42932e-18
-6.28873e-22
6.32977e-20
-1.22655e-24
2.21927e-23
-2.04202e-28
5.31466e-26
-1.625e-30
1.02604e-29
-1.45926e-32
8.87395e-32
8.78916e-34
-1.31601e-34
-5.6859e-37
-3.21468e-40
-8.27424e-35
-4.87619e-38
-5.73689e-33
-3.52329e-36
-2.63041e-31
-1.6833e-34
-8.96123e-30
-5.98136e-33
-2.40611e-28
-1.67824e-31
-5.27414e-27
-3.8549e-30
-9.66338e-26
-7.43199e-29
-1.49821e-24
-1.21953e-27
-1.98944e-23
-1.72402e-26
-2.39788e-22
-2.14742e-25
-2.80747e-21
-2.21202e-24
-2.95579e-20
-1.81457e-23
-1.29489e-18
-1.51949e-22
-7.66271e-18
-7.45259e-22
-3.26118e-18
1.34915e-21
-6.18163e-20
2.62756e-20
-2.12715e-23
1.38522e-21
-5.1404e-26
6.51095e-25
-9.3232e-30
1.8618e-27
-7.84299e-32
3.89841e-31
-7.27548e-34
3.65383e-33
3.59603e-35
-6.81382e-36
-3.19005e-40
-6.27282e-44
-4.89319e-38
-1.01505e-41
-3.55702e-36
-7.79096e-40
-1.71335e-34
-3.96377e-38
-6.13621e-33
-1.50139e-36
-1.73535e-31
-4.50047e-35
-4.01821e-30
-1.10802e-33
-7.80961e-29
-2.29963e-32
-1.29086e-27
-4.08286e-31
-1.82241e-26
-6.23039e-30
-2.31366e-25
-8.22932e-29
-2.90178e-24
-9.231e-28
-4.06157e-23
-9.41765e-27
-9.61162e-22
-8.33223e-26
-9.28394e-21
-6.11996e-25
-2.6104e-20
-2.4146e-24
-1.36322e-21
1.47086e-22
-6.27826e-25
1.89599e-23
-1.81135e-27
1.3316e-26
-3.70074e-31
4.75546e-29
-3.22375e-33
1.23295e-32
-3.14525e-35
1.28352e-34
1.3613e-36
-3.12185e-37
-6.2759e-44
-3.12157e-47
-1.02076e-41
-5.42504e-45
-7.83881e-40
-4.45351e-43
-4.00083e-38
-2.43148e-41
-1.52022e-36
-9.89693e-40
-4.57208e-35
-3.19554e-38
-1.12974e-33
-8.50351e-37
-2.35517e-32
-1.91707e-35
-4.21384e-31
-3.73052e-34
-6.47581e-30
-6.27606e-33
-8.78232e-29
-9.07355e-32
-1.27774e-27
-1.1983e-30
-1.72439e-26
-1.4343e-29
-2.27236e-25
-1.51346e-28
-1.81024e-23
-1.43423e-27
-1.61887e-22
-1.22237e-26
-1.87182e-23
2.20311e-25
-1.27986e-26
1.66841e-25
-4.64603e-29
2.15688e-28
-1.10767e-32
1.01496e-30
-1.12396e-34
3.23946e-34
-1.18346e-36
3.84238e-36
4.4825e-38
-1.26155e-38
-3.03284e-47
-4.76968e-52
-5.0274e-45
-8.55653e-50
-4.16511e-43
-7.66945e-48
-2.29058e-41
-4.56672e-46
-9.39227e-40
-2.03029e-44
-3.05666e-38
-7.17962e-43
-8.20757e-37
-2.10114e-41
-1.86611e-35
-5.22773e-40
-3.66652e-34
-1.12982e-38
-6.29003e-33
-2.14606e-37
-9.62979e-32
-3.61648e-36
-1.60525e-30
-5.54546e-35
-2.44877e-29
-7.66724e-34
-3.70668e-28
-9.49281e-33
-3.73157e-26
-1.02743e-31
-3.84129e-25
-8.92899e-31
-1.64872e-25
-1.88251e-30
-2.05854e-28
5.94841e-28
-9.95593e-31
2.58246e-30
-2.86874e-34
1.71235e-32
-3.3219e-36
7.06846e-36
-3.84919e-38
9.84867e-38
1.28759e-39
-4.48008e-40
-4.74324e-52
-1.88815e-55
-8.59932e-50
-3.75284e-53
-7.75591e-48
-3.70666e-51
-4.64721e-46
-2.43391e-49
-2.07934e-44
-1.19488e-47
-7.40167e-43
-4.67558e-46
-2.18109e-41
-1.51862e-44
-5.46625e-40
-4.20972e-43
-1.1896e-38
-1.0177e-41
-2.27772e-37
-2.17719e-40
-3.89156e-36
-4.162e-39
-7.00419e-35
-7.27137e-38
-1.22106e-33
-1.16208e-36
-2.00524e-32
-1.6883e-35
-3.22986e-31
-2.19975e-34
-4.45016e-29
-2.51095e-33
-5.74955e-28
-2.6567e-32
-2.42327e-30
1.55055e-30
-1.6846e-32
2.09881e-32
-6.12445e-36
2.23764e-34
-8.31756e-38
1.25208e-37
-1.08589e-39
2.14337e-39
3.22775e-41
-1.40802e-41
-1.88583e-55
-8.17118e-60
-3.77045e-53
-1.81411e-57
-3.74345e-51
-1.99795e-55
-2.47075e-49
-1.46354e-53
-1.21926e-47
-8.02394e-52
-4.79653e-46
-3.5131e-50
-1.56637e-44
-1.27996e-48
-4.36665e-43
-3.99369e-47
-1.06139e-41
-1.09077e-45
-2.28367e-40
-2.64985e-44
-4.40214e-39
-5.78916e-43
-8.55021e-38
-1.15808e-41
-1.69548e-36
-2.14572e-40
-3.17129e-35
-3.65317e-39
-5.86531e-34
-5.69134e-38
-1.04564e-31
-8.41052e-37
-1.56195e-30
-1.31382e-35
-1.98987e-32
3.62937e-34
-2.20452e-34
1.04572e-34
-1.06402e-37
2.25109e-36
-1.75099e-39
1.74649e-39
-2.63483e-41
3.84317e-41
7.09432e-43
-3.90228e-43
-8.16657e-60
-1.16483e-65
-1.82168e-57
-2.92273e-63
-2.01524e-55
-3.63499e-61
-1.48298e-53
-3.00803e-59
-8.16851e-52
-1.86486e-57
-3.59325e-50
-9.24708e-56
-1.31537e-48
-3.82379e-54
-4.1237e-47
-1.35784e-52
-1.13146e-45
-4.23412e-51
-2.76164e-44
-1.17918e-49
-6.06561e-43
-2.9685e-48
-1.25244e-41
-6.86575e-47
-2.83759e-40
-1.47496e-45
-6.07576e-39
-2.94837e-44
-1.33312e-37
-5.44196e-43
-2.85089e-35
-9.04716e-42
-4.64747e-34
-1.24003e-40
-1.02183e-34
-1.0362e-39
-2.21636e-36
1.78044e-37
-1.51069e-39
1.75198e-38
-3.11652e-41
2.03949e-41
-5.53565e-43
5.85948e-43
1.34905e-44
-9.5512e-45
-1.165e-65
-1.32614e-69
-2.93512e-63
-3.81286e-67
-3.66562e-61
-5.43283e-65
-3.04617e-59
-5.15179e-63
-1.89657e-57
-3.66281e-61
-9.44487e-56
-2.08554e-59
-3.92264e-54
-9.92025e-58
-1.39913e-52
-4.06133e-56
-4.38174e-51
-1.46377e-54
-1.22623e-49
-4.72863e-53
-3.10443e-48
-1.38685e-51
-7.22996e-47
-3.74785e-50
-1.75221e-45
-9.41334e-49
-4.36528e-44
-2.22276e-47
-1.05283e-42
-4.89036e-46
-2.46324e-41
-9.86987e-45
-7.9757e-39
-1.73321e-43
-1.87918e-37
-3.76187e-42
-1.71996e-38
1.73697e-40
-1.80241e-41
9.16314e-41
-4.82713e-43
1.87522e-43
-1.03423e-44
7.43062e-45
2.14122e-46
-2.08516e-46
-1.32595e-69
-1.85888e-75
-3.82449e-67
-6.22728e-73
-5.4685e-65
-1.03411e-70
-5.20365e-63
-1.14312e-68
-3.71248e-61
-9.48021e-67
-2.1211e-59
-6.30307e-65
-1.01238e-57
-3.50609e-63
-4.15862e-56
-1.6817e-61
-1.50374e-54
-7.11683e-60
-4.87353e-53
-2.70657e-58
-1.43564e-51
-9.38368e-57
-3.89174e-50
-3.00368e-55
-9.90873e-49
-8.96596e-54
-2.87252e-47
-2.51545e-52
-8.06914e-46
-6.6544e-51
-2.2083e-44
-1.63391e-49
-9.47031e-42
-3.59787e-48
-2.62273e-40
-6.28679e-47
-8.89211e-41
-2.70018e-47
-1.68693e-43
2.1573e-43
-6.16189e-45
1.36987e-45
-1.64621e-46
7.94311e-47
3.0212e-48
-4.04234e-48
-1.85914e-75
-1.72836e-79
-6.24778e-73
-6.89838e-77
-1.04084e-70
-1.36516e-74
-1.15428e-68
-1.79885e-72
-9.60439e-67
-1.77933e-70
-6.40711e-65
-1.41227e-68
-3.57621e-63
-9.38978e-67
-1.7214e-61
-5.39156e-65
-7.31136e-60
-2.73624e-63
-2.79074e-58
-1.25022e-61
-9.71852e-57
-5.22171e-60
-3.1254e-55
-2.01822e-58
-9.38232e-54
-7.29071e-57
-2.79874e-52
-2.48048e-55
-9.28422e-51
-7.98331e-54
-3.0393e-49
-2.4136e-52
-9.8693e-48
-6.6416e-51
-5.83235e-45
-1.50862e-49
-1.95728e-43
-2.75627e-48
-1.25624e-45
5.36045e-46
-6.59899e-47
7.96484e-48
-2.27031e-48
7.24429e-49
3.71755e-50
-7.07497e-50
-1.72867e-79
-5.82524e-84
-6.91728e-77
-2.85662e-81
-1.37249e-74
-6.94873e-79
-1.81329e-72
-1.1257e-76
-1.79838e-70
-1.36964e-74
-1.43121e-68
-1.3382e-72
-9.54129e-67
-1.09637e-70
-5.4934e-65
-7.76699e-69
-2.79557e-63
-4.87029e-67
-1.28088e-61
-2.75385e-65
-5.36559e-60
-1.42598e-63
-2.08047e-58
-6.84639e-62
-7.54351e-57
-3.07947e-60
-2.58026e-55