/*--------------------------------*- C++ -*----------------------------------*\
| =========                 |                                                 |
| \\      /  F ield         | OpenFOAM: The Open Source CFD Toolbox           |
|  \\    /   O peration     | Version:  2206                                  |
|   \\  /    A nd           | Website:  www.openfoam.com                      |
|    \\/     M anipulation  |                                                 |
\*---------------------------------------------------------------------------*/
FoamFile
{
    version     2.0;
    format      ascii;
    arch        "LSB;label=32;scalar=64";
    class       volScalarField;
    location    "0.05";
    object      p;
}
// * * * * * * * * * * * * * * * * * * * * * * * * * * * * * * * * * * * * * //

dimensions      [1 -1 -2 0 0 0 0];

internalField   nonuniform List<scalar> 
2268
(
1325.67
1317.12
1298.6
1270.39
1232.13
1183.16
1122.59
1049.18
961.775
856.933
734.487
598.106
412.345
183.413
44.8999
8.97216
4.68826
4.09358
3.40541
3.01115
2.7782
2.63806
2.57384
1268.31
1259.77
1241.28
1213.11
1174.91
1126
1065.49
992.14
904.759
799.636
676.94
539.103
343.364
121.059
20.9897
5.14996
3.47189
3.49269
3.20536
2.91211
2.69171
2.55635
2.495
1212.48
1203.96
1185.52
1157.45
1119.36
1070.58
1010.22
936.997
849.696
744.193
621.159
479.965
269.328
65.7835
10.4993
3.19657
2.56319
2.82759
2.87872
2.72939
2.55876
2.44555
2.39142
1158.19
1149.7
1131.34
1103.41
1065.5
1016.92
956.794
883.811
796.694
690.919
567.773
422.771
201.801
36.6514
6.27124
2.26568
2.0585
2.38986
2.56502
2.51455
2.40133
2.31318
2.26621
1105.44
1096.99
1078.74
1050.99
1013.32
965.038
905.255
832.656
745.898
640.178
517.489
369.259
144.758
21.0285
3.90518
1.9172
1.86277
2.15517
2.31769
2.30786
2.23463
2.16534
2.12215
1054.25
1045.84
1027.74
1000.23
962.862
914.967
855.656
783.618
697.469
592.298
470.852
320.701
100.208
11.9681
2.76874
1.73438
1.77245
1.99112
2.11133
2.11554
2.06477
2.00645
1.96038
1004.58
996.24
978.319
951.081
914.095
866.687
807.982
736.689
651.411
547.317
428.004
277.726
67.4004
6.77201
2.24252
1.61265
1.69702
1.84069
1.92728
1.93501
1.89518
1.83989
1.77943
956.399
948.109
930.4
903.484
866.937
820.105
762.126
691.743
607.563
505.011
388.334
239.757
44.3685
3.71645
1.8462
1.51749
1.60351
1.69618
1.75921
1.76494
1.7285
1.66987
1.57862
0.968451
0.9644
0.956473
0.945874
0.933693
0.920791
0.907794
0.895138
0.883131
0.871976
0.861803
0.852683
0.844659
0.837752
0.831978
0.827346
0.823866
0.821545
0.82039
0.910554
0.906415
0.898264
0.88742
0.875032
0.861969
0.848855
0.836119
0.824058
0.812869
0.802672
0.793538
0.785503
0.778589
0.77281
0.768176
0.764694
0.762373
0.761221
0.85367
0.849353
0.840727
0.829377
0.816566
0.803187
0.789842
0.776944
0.764773
0.75351
0.743262
0.734093
0.726036
0.71911
0.713323
0.708683
0.705199
0.702879
0.701728
0.797834
0.793267
0.783874
0.771728
0.758271
0.744414
0.730731
0.717594
0.70526
0.693885
0.683564
0.674347
0.666258
0.659311
0.653512
0.648866
0.645381
0.643061
0.64191
0.743141
0.738236
0.727704
0.71443
0.7001
0.685613
0.671487
0.658045
0.645503
0.633988
0.623573
0.614294
0.606164
0.599192
0.593378
0.588726
0.585238
0.582918
0.581767
0.689518
0.684358
0.672188
0.657409
0.641979
0.626725
0.612069
0.598268
0.585483
0.573805
0.56328
0.553927
0.54575
0.538749
0.53292
0.528261
0.524771
0.522451
0.521299
0.635658
0.631661
0.617273
0.600546
0.583804
0.567674
0.552426
0.538229
0.525177
0.513319
0.502673
0.49324
0.485013
0.477982
0.472137
0.467471
0.463978
0.461657
0.460505
0.5835
0.580384
0.562908
0.54368
0.525433
0.508366
0.492498
0.477886
0.464557
0.452512
0.441741
0.432226
0.423947
0.416886
0.411026
0.406353
0.402859
0.400538
0.399385
883.479
875.284
857.97
831.648
795.921
750.177
693.598
625.019
543.071
444.063
331.317
187.761
23.825
2.13104
1.39346
1.38127
1.43205
1.48268
1.51794
1.51559
1.47638
1.40029
1.23051
791.151
783.197
766.584
741.353
707.14
663.424
609.51
544.442
467.149
374.837
271.229
139.986
10.0221
1.33338
1.03109
1.16046
1.19004
1.21512
1.2287
1.21611
1.17413
1.10042
0.993445
705.545
697.899
682.128
658.21
625.833
584.58
533.906
473.096
401.43
316.907
223.693
106.246
4.42919
0.958845
0.818738
0.926083
0.945335
0.960529
0.963728
0.94752
0.910623
0.852716
0.778679
626.457
619.185
604.378
581.962
551.686
513.243
466.242
410.204
344.727
268.461
185.774
81.7897
2.03599
0.666774
0.641731
0.6973
0.709515
0.718109
0.71568
0.69893
0.667137
0.620039
0.55941
553.602
546.763
533.016
512.242
484.259
448.863
405.804
354.805
295.719
227.682
155.015
63.5239
1.03278
0.48389
0.469392
0.47736
0.481818
0.485297
0.479866
0.463726
0.436233
0.397412
0.348622
486.641
480.281
467.66
448.626
423.061
390.848
351.859
305.972
253.226
193.095
129.669
49.4972
0.560656
0.2626
0.269526
0.257045
0.257872
0.259041
0.252941
0.238473
0.215264
0.183621
0.144703
425.186
419.341
407.888
390.651
367.566
338.589
303.684
262.845
216.226
163.523
108.471
38.4052
0.120253
-0.0475658
0.0389912
0.0325418
0.0358609
0.0378927
0.0330157
0.0210152
0.00194904
-0.0236727
-0.0548844
368.817
363.513
353.246
337.822
317.226
291.468
260.572
224.617
183.82
138.012
90.5164
29.5526
-0.232381
-0.346114
-0.202328
-0.191428
-0.182229
-0.177739
-0.180563
-0.189904
-0.205238
-0.225878
-0.250963
317.087
312.337
303.249
289.62
271.473
248.852
221.826
190.521
155.187
115.739
75.0878
22.4525
-0.46875
-0.566874
-0.42779
-0.405854
-0.392753
-0.386679
-0.387909
-0.395039
-0.407275
-0.423866
-0.444047
269.529
265.332
257.394
245.507
229.728
210.124
186.781
159.855
129.612
96.022
61.6173
16.7112
-0.645687
-0.724231
-0.625508
-0.605594
-0.593802
-0.588524
-0.58943
-0.595182
-0.605045
-0.618399
-0.634626
225.661
222
215.166
204.951
191.434
174.701
154.844
132.029
106.53
78.369
49.73
12.0639
-0.811094
-0.862871
-0.805028
-0.79349
-0.786765
-0.78437
-0.786226
-0.791429
-0.799552
-0.810273
-0.823214
184.949
181.801
176.019
167.4
156.028
142.006
125.434
106.483
85.4283
62.3426
39.1035
8.32713
-0.975265
-1.00427
-0.976724
-0.974764
-0.974585
-0.976212
-0.979846
-0.985062
-0.991851
-1.0003
-1.01034
146.955
144.307
139.533
132.431
123.082
111.599
98.107
82.7875
65.9137
47.5792
29.4053
5.28253
-1.13034
-1.14992
-1.14557
-1.15325
-1.16015
-1.16622
-1.17192
-1.17734
-1.18292
-1.18923
-1.19652
111.782
109.605
105.799
100.116
92.6569
83.552
72.9479
61.0583
48.1586
34.3015
20.83
2.87395
-1.26094
-1.29996
-1.3131
-1.33145
-1.34628
-1.35678
-1.36424
-1.36954
-1.37368
-1.37769
-1.38217
78.4259
76.5253
73.585
69.1978
63.4436
56.4929
48.5068
39.7412
30.525
20.9569
12.2847
0.725554
-1.47053
-1.4519
-1.47885
-1.51256
-1.5366
-1.55093
-1.55897
-1.56306
-1.565
-1.56621
-1.56758
41.7235
40.0208
37.7837
34.5185
30.2231
25.0843
19.2822
13.104
6.91382
1.13372
-2.3049
-4.44534
-1.80787
-1.58175
-1.64508
-1.70376
-1.73617
-1.75206
-1.75829
-1.75917
-1.75754
-1.75512
-1.75288
8.536
7.54442
6.10846
3.94493
1.16332
-2.09907
-5.65534
-9.24054
-12.55
-15.0331
-14.6681
-11.6245
-1.93307
-1.64902
-1.81646
-1.91787
-1.95184
-1.96355
-1.96388
-1.95875
-1.95167
-1.94448
-1.93799
6.18077
5.79917
5.30279
4.51906
3.5463
2.47763
1.44659
0.594074
0.270728
0.313194
3.22267
10.1762
-2.18707
-1.75747
-2.02562
-2.16932
-2.19304
-2.1888
-2.17643
-2.16175
-2.14705
-2.13396
-2.12258
14.4606
14.3613
14.178
13.9102
13.5555
13.1196
12.5989
11.9803
11.3664
9.93801
8.61745
0.0643767
-0.741014
-3.56703
-2.80447
-2.55941
-2.47146
-2.43003
-2.3948
-2.36663
-2.34281
-2.32278
-2.30604
-4.12835
-4.12241
-4.11585
-4.10615
-4.09361
-4.07847
-4.06101
-4.04111
-4.0223
-4.02018
-4.03924
-4.02207
-4.68744
-5.28667
-3.65081
-3.01875
-2.78978
-2.68074
-2.61581
-2.57098
-2.53678
-2.50954
-2.48742
-4.17309
-4.16923
-4.16237
-4.15224
-4.13904
-4.12269
-4.10274
-4.07936
-4.05609
-4.02891
-3.9917
-4.02554
-4.35178
-4.35179
-3.86711
-3.31925
-3.05819
-2.91459
-2.82816
-2.76943
-2.72611
-2.69248
-2.66559
-4.20333
-4.19979
-4.19235
-4.18149
-4.16725
-4.14926
-4.12705
-4.10096
-4.0718
-4.03505
-3.99568
-3.98959
-4.01619
-3.8982
-3.65402
-3.40403
-3.23108
-3.10674
-3.01958
-2.95594
-2.90768
-2.86985
-2.83946
-4.24443
-4.24073
-4.23313
-4.22197
-4.20711
-4.18813
-4.16468
-4.13671
-4.10345
-4.06304
-4.02166
-3.98801
-3.93604
-3.81183
-3.6387
-3.48575
-3.36572
-3.26817
-3.19066
-3.12921
-3.08022
-3.04067
-3.00835
-4.28952
-4.28547
-4.27785
-4.26648
-4.25106
-4.23132
-4.20699
-4.17773
-4.14257
-4.10094
-4.05493
-4.00293
-3.93277
-3.83312
-3.71413
-3.5993
-3.50124
-3.41843
-3.34935
-3.29202
-3.24452
-3.20505
-3.17211
-4.33935
-4.33543
-4.32785
-4.31639
-4.30078
-4.2808
-4.25621
-4.22665
-4.19141
-4.1502
-4.10312
-4.04767
-3.97895
-3.89544
-3.80428
-3.71492
-3.6335
-3.56182
-3.49994
-3.44701
-3.40194
-3.36363
-3.33103
-4.39388
-4.39025
-4.38271
-4.3713
-4.3559
-4.33624
-4.31205
-4.28306
-4.2488
-4.20893
-4.16301
-4.10968
-4.0475
-3.97721
-3.90301
-3.82992
-3.76145
-3.69935
-3.64417
-3.59577
-3.55364
-3.51713
-3.48553
-4.45356
-4.44998
-4.44252
-4.43135
-4.41644
-4.39748
-4.37421
-4.3464
-4.31377
-4.27604
-4.23288
-4.1838
-4.12873
-4.06882
-4.00667
-3.94524
-3.88674
-3.83261
-3.78349
-3.73954
-3.70057
-3.66623
-3.63607
-4.51784
-4.51422
-4.50699
-4.49629
-4.48206
-4.46403
-4.44198
-4.41572
-4.38512
-4.35005
-4.31039
-4.26614
-4.21769
-4.16612
-4.11314
-4.06063
-4.01015
-3.96274
-3.91903
-3.87929
-3.84352
-3.81156
-3.78315
-4.5859
-4.58239
-4.57562
-4.5656
-4.5522
-4.53526
-4.5146
-4.49014
-4.46184
-4.4297
-4.39377
-4.35428
-4.31175
-4.26706
-4.22142
-4.17608
-4.13217
-4.0905
-4.05161
-4.01581
-3.98318
-3.95369
-3.9272
-4.65743
-4.65424
-4.64807
-4.63882
-4.62637
-4.61062
-4.5915
-4.56898
-4.54311
-4.51398
-4.48174
-4.4467
-4.40938
-4.37048
-4.33087
-4.29146
-4.25309
-4.2164
-4.18184
-4.14969
-4.1201
-4.09311
-4.06864
-4.73248
-4.72971
-4.72414
-4.71567
-4.70419
-4.68969
-4.67216
-4.65165
-4.62823
-4.60205
-4.57331
-4.54235
-4.5096
-4.47564
-4.44113
-4.40677
-4.37316
-4.34084
-4.31017
-4.28143
-4.25476
-4.23024
-4.20785
-4.811
-4.80858
-4.80355
-4.79579
-4.78528
-4.77205
-4.75612
-4.73759
-4.71656
-4.69319
-4.66771
-4.64042
-4.61171
-4.58205
-4.55196
-4.52195
-4.49252
-4.46411
-4.43699
-4.41142
-4.38755
-4.36545
-4.34516
-4.89254
-4.89039
-4.88582
-4.87873
-4.86917
-4.85719
-4.84284
-4.82623
-4.80748
-4.78676
-4.76429
-4.74034
-4.71524
-4.68938
-4.66317
-4.63702
-4.61132
-4.58641
-4.56258
-4.53999
-4.5188
-4.49908
-4.48087
-4.97651
-4.97456
-4.97039
-4.96397
-4.95535
-4.9446
-4.9318
-4.91705
-4.90047
-4.88224
-4.86256
-4.84166
-4.81983
-4.79739
-4.77467
-4.752
-4.72969
-4.70802
-4.68722
-4.66744
-4.64879
-4.63138
-4.61523
-5.06232
-5.06054
-5.05678
-5.05102
-5.04336
-5.03384
-5.02255
-5.0096
-4.99511
-4.97924
-4.96215
-4.94408
-4.92525
-4.90594
-4.8864
-4.86691
-4.84772
-4.82906
-4.81112
-4.79397
-4.77777
-4.76259
-4.74847
-5.14957
-5.14796
-5.14462
-5.13956
-5.13286
-5.12457
-5.11477
-5.10357
-5.09109
-5.07745
-5.06282
-5.04739
-5.03136
-5.01494
-4.99835
-4.98181
-4.96551
-4.94964
-4.93432
-4.91975
-4.90592
-4.89292
-4.88079
-5.23803
-5.23661
-5.23372
-5.22937
-5.22363
-5.21656
-5.20823
-5.19874
-5.18818
-5.17668
-5.16438
-5.15144
-5.13803
-5.12433
-5.1105
-5.09672
-5.08315
-5.06993
-5.05718
-5.04499
-5.03343
-5.02255
-5.01236
-5.32756
-5.32635
-5.32392
-5.3203
-5.31552
-5.30966
-5.30276
-5.29492
-5.28623
-5.27678
-5.26671
-5.25614
-5.24522
-5.23407
-5.22285
-5.21168
-5.20069
-5.19
-5.17968
-5.16981
-5.16045
-5.15162
-5.14335
-5.41806
-5.41708
-5.41513
-5.41222
-5.4084
-5.40372
-5.39822
-5.39199
-5.3851
-5.37763
-5.3697
-5.3614
-5.35284
-5.34413
-5.33539
-5.32671
-5.31819
-5.30991
-5.30194
-5.29432
-5.28709
-5.28027
-5.27388
-5.50954
-5.50879
-5.50731
-5.50511
-5.50222
-5.49868
-5.49455
-5.48987
-5.48471
-5.47915
-5.47327
-5.46713
-5.46084
-5.45448
-5.44811
-5.44183
-5.43569
-5.42975
-5.42404
-5.41861
-5.41348
-5.40864
-5.4041
-5.60171
-5.60121
-5.6002
-5.5987
-5.59672
-5.59432
-5.59151
-5.58835
-5.58488
-5.58117
-5.57727
-5.57325
-5.56915
-5.56505
-5.56099
-5.55703
-5.55321
-5.54955
-5.54607
-5.5428
-5.53972
-5.53683
-5.53412
-5.69263
-5.69241
-5.69191
-5.69117
-5.69019
-5.689
-5.68763
-5.68609
-5.68443
-5.68268
-5.68088
-5.67905
-5.67723
-5.67547
-5.67377
-5.67217
-5.67068
-5.66932
-5.66808
-5.66696
-5.66593
-5.66498
-5.66408
0.847842
0.783608
0.701563
0.604279
0.794466
0.6665
0.570427
0.482203
0.647102
0.522058
0.428631
0.347844
0.465271
0.362841
0.278307
0.205107
0.278238
0.1951
0.121006
0.0556436
0.0898523
0.0220391
-0.0415666
-0.0991201
-0.0985115
-0.153912
-0.207852
-0.257931
-0.285972
-0.331284
-0.376658
-0.419779
-0.472244
-0.509254
-0.547127
-0.583867
-0.657306
-0.687362
-0.718658
-0.749577
-0.841268
-0.865358
-0.890825
-0.916425
-1.02432
-1.04312
-1.06333
-1.08404
-1.20667
-1.2206
-1.23596
-1.2521
-1.38852
-1.39776
-1.40853
-1.42037
-1.56997
-1.57454
-1.58087
-1.58861
-1.75098
-1.75084
-1.75281
-1.7566
-1.93142
-1.92644
-1.92414
-1.92412
-2.11097
-2.10109
-2.0946
-2.09094
-2.28918
-2.27444
-2.26393
-2.25683
-2.46544
-2.4461
-2.43182
-2.42154
-2.63907
-2.61561
-2.59798
-2.58486
-2.80939
-2.78258
-2.76213
-2.74659
-2.97595
-2.94668
-2.92404
-2.90655
-3.13858
-3.10776
-3.08358
-3.06462
-3.29731
-3.26579
-3.24069
-3.22075
-3.45236
-3.42083
-3.39539
-3.37492
-3.60401
-3.57306
-3.54776
-3.52718
-3.75259
-3.72268
-3.69794
-3.6776
-3.89842
-3.86991
-3.84607
-3.82628
-4.04184
-4.01499
-3.99233
-3.97334
-4.18315
-4.15816
-4.13689
-4.11892
-4.32263
-4.29965
-4.27993
-4.26316
-4.46055
-4.43966
-4.42162
-4.40618
-4.59713
-4.57841
-4.56214
-4.54813
-4.73259
-4.71606
-4.70163
-4.68914
-4.8671
-4.8528
-4.84024
-4.82934
-5.00085
-4.98877
-4.97813
-4.96885
-5.13398
-5.12412
-5.11541
-5.1078
-5.26663
-5.25899
-5.25222
-5.24629
-5.39895
-5.39351
-5.38868
-5.38444
-5.53105
-5.52779
-5.5249
-5.52236
-5.66306
-5.66198
-5.66102
-5.66017
0.529505
0.502437
0.477794
0.454355
0.433683
0.415098
0.398254
0.382998
0.369236
0.356901
0.345938
0.3363
0.327946
0.320841
0.31496
0.310279
0.306783
0.304464
0.303311
0.419847
0.383348
0.3543
0.328604
0.305929
0.285872
0.267996
0.252026
0.237782
0.225128
0.213962
0.204201
0.19578
0.188645
0.182756
0.17808
0.174594
0.172284
0.171136
0.291805
0.255388
0.224788
0.198041
0.174483
0.153677
0.135227
0.118848
0.104326
0.0914983
0.0802343
0.0704298
0.0620013
0.0548822
0.0490199
0.044374
0.0409154
0.0386249
0.0374878
0.15415
0.11954
0.0893616
0.0627599
0.0391925
0.0182886
-0.000262115
-0.0167115
-0.0312627
-0.0440826
-0.055309
-0.0650552
-0.0734134
-0.0804585
-0.0862499
-0.0908335
-0.0942422
-0.096498
-0.0976171
0.00945536
-0.0226438
-0.0513125
-0.0769314
-0.0998377
-0.12029
-0.138513
-0.154702
-0.169031
-0.181651
-0.192691
-0.202265
-0.210466
-0.21737
-0.223041
-0.227525
-0.230857
-0.233061
-0.234154
-0.140566
-0.169849
-0.196461
-0.220559
-0.242319
-0.261897
-0.279436
-0.295076
-0.30895
-0.321184
-0.331893
-0.341179
-0.349132
-0.355827
-0.361323
-0.365668
-0.368896
-0.37103
-0.372087
-0.294717
-0.321069
-0.34535
-0.367597
-0.387881
-0.406274
-0.422854
-0.437706
-0.450926
-0.462609
-0.472852
-0.481743
-0.489363
-0.495781
-0.501051
-0.505218
-0.508313
-0.510358
-0.51137
-0.452071
-0.475489
-0.497318
-0.517531
-0.536128
-0.553122
-0.568538
-0.582418
-0.59482
-0.605814
-0.615475
-0.623877
-0.631087
-0.637166
-0.642161
-0.646112
-0.649047
-0.650986
-0.651946
-0.611888
-0.632436
-0.65179
-0.669882
-0.68667
-0.702125
-0.716234
-0.729004
-0.740464
-0.750659
-0.759645
-0.767478
-0.774213
-0.779898
-0.784576
-0.788278
-0.791028
-0.792846
-0.793746
-0.773571
-0.791351
-0.808262
-0.824212
-0.839132
-0.852967
-0.865677
-0.877244
-0.887673
-0.896988
-0.905226
-0.912427
-0.918633
-0.923882
-0.928206
-0.931631
-0.934178
-0.935862
-0.936697
-0.936637
-0.951771
-0.966302
-0.980129
-0.993168
-1.00535
-1.01661
-1.02691
-1.03625
-1.04463
-1.05207
-1.0586
-1.06423
-1.06901
-1.07295
-1.07608
-1.07841
-1.07995
-1.08071
-1.10069
-1.1133
-1.12554
-1.13728
-1.14846
-1.15898
-1.16877
-1.17779
-1.18601
-1.19342
-1.20003
-1.20585
-1.21089
-1.21517
-1.21871
-1.22153
-1.22362
-1.22501
-1.2257
-1.26541
-1.27561
-1.28564
-1.29537
-1.30472
-1.3136
-1.32194
-1.32967
-1.33676
-1.34319
-1.34895
-1.35404
-1.35847
-1.36224
-1.36537
-1.36786
-1.36972
-1.37095
-1.37157
-1.43049
-1.43841
-1.44632
-1.45411
-1.46169
-1.46898
-1.47588
-1.48234
-1.48831
-1.49376
-1.49867
-1.50304
-1.50685
-1.51011
-1.51282
-1.51498
-1.5166
-1.51768
-1.51821
-1.5957
-1.60144
-1.60732
-1.61325
-1.61913
-1.62487
-1.63039
-1.63561
-1.64049
-1.64498
-1.64906
-1.6527
-1.6559
-1.65865
-1.66094
-1.66278
-1.66416
-1.66508
-1.66553
-1.7608
-1.76445
-1.76841
-1.77257
-1.77683
-1.78109
-1.78528
-1.78932
-1.79313
-1.79669
-1.79995
-1.80289
-1.80549
-1.80774
-1.80963
-1.81114
-1.81229
-1.81305
-1.81343
-1.92557
-1.92724
-1.92937
-1.93185
-1.93458
-1.93745
-1.94038
-1.94328
-1.94609
-1.94875
-1.95123
-1.95349
-1.95551
-1.95727
-1.95877
-1.95997
-1.96089
-1.96151
-1.96181
-2.08978
-2.08959
-2.09001
-2.09092
-2.09221
-2.09377
-2.09551
-2.09734
-2.0992
-2.10102
-2.10276
-2.10437
-2.10584
-2.10714
-2.10826
-2.10917
-2.10987
-2.11034
-2.11057
-2.25322
-2.2513
-2.25013
-2.24959
-2.24954
-2.24989
-2.25053
-2.25137
-2.25234
-2.25337
-2.25441
-2.25542
-2.25638
-2.25724
-2.258
-2.25864
-2.25913
-2.25946
-2.25962
-2.41569
-2.41219
-2.40957
-2.4077
-2.40643
-2.40567
-2.40531
-2.40524
-2.40539
-2.40569
-2.40609
-2.40654
-2.40702
-2.40748
-2.40791
-2.40828
-2.40857
-2.40877
-2.40887
-2.57701
-2.57209
-2.56817
-2.5651
-2.56275
-2.56099
-2.55971
-2.55882
-2.55823
-2.55787
-2.55769
-2.55764
-2.55767
-2.55777
-2.55789
-2.55801
-2.55813
-2.5582
-2.55824
-2.73701
-2.73086
-2.7258
-2.72169
-2.71837
-2.71572
-2.71364
-2.71201
-2.71076
-2.70983
-2.70912
-2.70861
-2.70826
-2.70802
-2.70786
-2.70777
-2.70771
-2.70768
-2.70766
-2.89554
-2.88836
-2.88234
-2.87734
-2.87319
-2.86979
-2.86701
-2.86475
-2.86292
-2.86147
-2.86031
-2.8594
-2.8587
-2.85816
-2.85776
-2.85746
-2.85726
-2.85713
-2.85707
-3.0525
-3.0445
-3.03771
-3.03197
-3.02715
-3.02311
-3.01974
-3.01694
-3.01463
-3.01274
-3.01119
-3.00993
-3.00893
-3.00813
-3.00751
-3.00705
-3.00671
-3.0065
-3.00639
-3.20783
-3.19922
-3.19184
-3.18553
-3.18017
-3.17562
-3.17178
-3.16855
-3.16583
-3.16357
-3.1617
-3.16015
-3.15889
-3.15788
-3.15707
-3.15646
-3.15602
-3.15573
-3.15559
-3.3615
-3.35249
-3.3447
-3.33799
-3.33223
-3.3273
-3.32309
-3.31951
-3.31649
-3.31393
-3.31179
-3.31001
-3.30854
-3.30735
-3.3064
-3.30567
-3.30513
-3.30479
-3.30461
-3.51354
-3.50431
-3.49629
-3.48932
-3.4833
-3.47811
-3.47364
-3.46982
-3.46656
-3.46379
-3.46145
-3.45948
-3.45785
-3.45652
-3.45545
-3.45463
-3.45402
-3.45363
-3.45343
-3.66399
-3.65473
-3.64662
-3.63955
-3.63339
-3.62805
-3.62343
-3.61945
-3.61603
-3.61311
-3.61063
-3.60854
-3.60679
-3.60536
-3.6042
-3.60331
-3.60266
-3.60223
-3.60201
-3.81292
-3.80378
-3.79574
-3.78869
-3.78252
-3.77714
-3.77246
-3.7684
-3.7649
-3.7619
-3.75933
-3.75716
-3.75535
-3.75385
-3.75264
-3.7517
-3.75101
-3.75056
-3.75033
-3.96043
-3.95155
-3.94371
-3.93679
-3.93071
-3.92538
-3.92073
-3.91668
-3.91317
-3.91014
-3.90755
-3.90535
-3.90351
-3.90198
-3.90074
-3.89978
-3.89908
-3.89861
-3.89838
-4.10662
-4.09812
-4.09058
-4.0839
-4.07801
-4.07282
-4.06828
-4.0643
-4.06085
-4.05786
-4.0553
-4.05311
-4.05127
-4.04975
-4.04852
-4.04755
-4.04684
-4.04638
-4.04615
-4.25159
-4.24358
-4.23644
-4.23009
-4.22447
-4.2195
-4.21514
-4.21131
-4.20797
-4.20507
-4.20258
-4.20045
-4.19865
-4.19716
-4.19595
-4.19501
-4.19431
-4.19385
-4.19363
-4.39547
-4.38803
-4.38137
-4.37543
-4.37015
-4.36548
-4.36135
-4.35772
-4.35455
-4.35179
-4.34941
-4.34738
-4.34566
-4.34423
-4.34307
-4.34216
-4.34149
-4.34105
-4.34083
-4.53837
-4.53156
-4.52545
-4.51999
-4.51512
-4.51079
-4.50696
-4.50359
-4.50064
-4.49806
-4.49583
-4.49393
-4.49231
-4.49097
-4.48988
-4.48902
-4.48839
-4.48797
-4.48777
-4.6804
-4.67429
-4.66879
-4.66385
-4.65944
-4.65552
-4.65204
-4.64896
-4.64626
-4.64391
-4.64187
-4.64012
-4.63864
-4.6374
-4.63639
-4.63561
-4.63503
-4.63464
-4.63446
-4.82168
-4.81631
-4.81146
-4.8071
-4.8032
-4.79972
-4.79662
-4.79389
-4.79148
-4.78938
-4.78755
-4.78599
-4.78466
-4.78355
-4.78265
-4.78194
-4.78142
-4.78108
-4.78091
-4.96231
-4.95772
-4.95356
-4.94982
-4.94646
-4.94346
-4.94079
-4.93842
-4.93633
-4.93451
-4.93293
-4.93157
-4.93041
-4.92945
-4.92867
-4.92805
-4.9276
-4.9273
-4.92715
-5.10241
-5.09862
-5.09519
-5.09209
-5.08931
-5.08681
-5.08459
-5.08262
-5.08088
-5.07936
-5.07804
-5.0769
-5.07594
-5.07513
-5.07448
-5.07397
-5.07359
-5.07334
-5.07322
-5.24208
-5.23912
-5.23643
-5.234
-5.23181
-5.22985
-5.2281
-5.22655
-5.22518
-5.22398
-5.22293
-5.22204
-5.22127
-5.22064
-5.22012
-5.21971
-5.21942
-5.21922
-5.21912
-5.38143
-5.37931
-5.37738
-5.37563
-5.37406
-5.37265
-5.37139
-5.37027
-5.36928
-5.36841
-5.36766
-5.36701
-5.36646
-5.366
-5.36563
-5.36533
-5.36512
-5.36497
-5.36491
-5.52056
-5.51928
-5.51812
-5.51707
-5.51612
-5.51527
-5.51451
-5.51384
-5.51324
-5.51272
-5.51226
-5.51187
-5.51154
-5.51126
-5.51103
-5.51086
-5.51073
-5.51064
-5.5106
-5.65957
-5.65914
-5.65876
-5.65841
-5.65809
-5.6578
-5.65755
-5.65732
-5.65712
-5.65695
-5.6568
-5.65666
-5.65655
-5.65646
-5.65638
-5.65632
-5.65628
-5.65625
-5.65624
)
;

boundaryField
{
    leftWall
    {
        type            calculated;
        value           nonuniform List<scalar> 
50
(
1325.67
1268.31
1212.48
1158.19
1105.44
1054.25
1004.58
956.399
883.479
791.151
705.545
626.457
553.602
486.641
425.186
368.817
317.087
269.529
225.661
184.949
146.955
111.782
78.4259
41.7235
8.536
6.18077
14.4606
-4.12835
-4.17309
-4.20333
-4.24443
-4.28952
-4.33935
-4.39388
-4.45356
-4.51784
-4.5859
-4.65743
-4.73248
-4.811
-4.89254
-4.97651
-5.06232
-5.14957
-5.23803
-5.32756
-5.41806
-5.50954
-5.60171
-5.69263
)
;
    }
    rightWall
    {
        type            calculated;
        value           nonuniform List<scalar> 
50
(
0.82039
0.761221
0.701728
0.64191
0.581767
0.521299
0.460505
0.399385
0.303311
0.171136
0.0374878
-0.0976171
-0.234154
-0.372087
-0.51137
-0.651946
-0.793746
-0.936697
-1.08071
-1.2257
-1.37157
-1.51821
-1.66553
-1.81343
-1.96181
-2.11057
-2.25962
-2.40887
-2.55824
-2.70766
-2.85707
-3.00639
-3.15559
-3.30461
-3.45343
-3.60201
-3.75033
-3.89838
-4.04615
-4.19363
-4.34083
-4.48777
-4.63446
-4.78091
-4.92715
-5.07322
-5.21912
-5.36491
-5.5106
-5.65624
)
;
    }
    lowerWall
    {
        type            calculated;
        value           nonuniform List<scalar> 
62
(
1355.1
1346.55
1328.03
1299.82
1261.56
1212.59
1152.02
1078.61
991.205
886.363
763.917
627.536
441.69
210.327
58.4781
10.1162
5.08457
4.22037
3.45455
3.04351
2.80793
2.66752
2.6033
2.57384
2.495
2.39142
2.26621
2.12215
1.96038
1.77943
1.57862
0.91044
0.846206
0.764161
0.666876
0.968451
0.910554
0.85367
0.797834
0.743141
0.689518
0.635658
0.5835
0.997881
0.993829
0.985903
0.975303
0.963122
0.95022
0.937223
0.924568
0.91256
0.901406
0.891232
0.882112
0.874088
0.867182
0.861407
0.856776
0.853295
0.850975
0.849819
)
;
    }
    atmosphere
    {
        type            calculated;
        value           nonuniform List<scalar> 
46
(
-5.73667
-5.73663
-5.73643
-5.73612
-5.73573
-5.73524
-5.73469
-5.73409
-5.73345
-5.73279
-5.73215
-5.73153
-5.73096
-5.73044
-5.73
-5.72964
-5.72936
-5.72917
-5.72907
-5.72904
-5.72904
-5.72904
-5.72904
-5.72904
-5.72904
-5.72904
-5.72904
-5.72904
-5.72904
-5.72904
-5.72904
-5.72904
-5.72904
-5.72904
-5.72904
-5.72904
-5.72904
-5.72904
-5.72904
-5.72904
-5.72904
-5.72904
-5.72904
-5.72904
-5.72904
-5.72904
)
;
    }
    defaultFaces
    {
        type            empty;
    }
}


// ************************************************************************* //
