/*--------------------------------*- C++ -*----------------------------------*\
| =========                 |                                                 |
| \\      /  F ield         | OpenFOAM: The Open Source CFD Toolbox           |
|  \\    /   O peration     | Version:  2206                                  |
|   \\  /    A nd           | Website:  www.openfoam.com                      |
|    \\/     M anipulation  |                                                 |
\*---------------------------------------------------------------------------*/
FoamFile
{
    version     2.0;
    format      ascii;
    arch        "LSB;label=32;scalar=64";
    class       volScalarField;
    location    "0.05";
    object      p_rgh;
}
// * * * * * * * * * * * * * * * * * * * * * * * * * * * * * * * * * * * * * //

dimensions      [1 -1 -2 0 0 0 0];

internalField   nonuniform List<scalar> 
2268
(
1355.1
1346.55
1328.03
1299.82
1261.56
1212.59
1152.02
1078.61
991.205
886.363
763.917
627.536
441.69
210.327
58.4781
10.1162
5.08457
4.22037
3.45455
3.04351
2.80793
2.66752
2.6033
1356.6
1348.06
1329.57
1301.4
1263.2
1214.29
1153.78
1080.43
993.047
887.924
765.228
627.391
430.225
186.637
43.2324
8.22947
4.66907
3.90298
3.3629
3.01118
2.78113
2.64474
2.58335
1359.63
1351.11
1332.67
1304.6
1266.51
1217.73
1157.37
1084.14
996.843
891.34
768.306
627.112
411.598
133.63
18.1886
6.00806
4.00627
3.49167
3.14294
2.88659
2.70701
2.5928
2.53862
1364.2
1355.71
1337.35
1309.41
1271.5
1222.93
1162.8
1089.82
1002.7
896.925
773.778
628.776
393.873
96.7314
11.0837
4.28775
2.93668
2.87873
2.84358
2.7281
2.60812
2.51926
2.47225
1370.31
1361.85
1343.61
1315.86
1278.19
1229.9
1170.12
1097.52
1010.76
905.043
782.353
634.124
379.17
75.1929
7.51628
3.29218
2.50216
2.52347
2.6053
2.57662
2.49998
2.43026
2.38705
1377.97
1369.57
1351.47
1323.95
1286.58
1238.69
1179.38
1107.34
1021.19
916.021
794.575
644.424
368.603
57.2522
5.46013
2.69247
2.29031
2.3672
2.4467
2.44135
2.38877
2.33021
2.28412
1387.17
1378.82
1360.9
1333.66
1296.68
1249.27
1190.56
1119.27
1033.99
929.898
810.586
660.308
364.795
43.5685
4.26942
2.3475
2.17604
2.24847
2.31552
2.31865
2.27792
2.22249
2.16202
1397.84
1389.55
1371.84
1344.92
1308.38
1261.55
1203.57
1133.18
1049
946.452
829.775
681.198
368.221
35.0635
3.43212
2.15934
2.09273
2.14946
2.20332
2.2069
2.17003
2.11132
2.02006
0.997881
0.993829
0.985903
0.975303
0.963122
0.95022
0.937223
0.924568
0.91256
0.901406
0.891232
0.882112
0.874088
0.867182
0.861407
0.856776
0.853295
0.850975
0.849819
0.998842
0.994703
0.986552
0.975708
0.96332
0.950257
0.937143
0.924407
0.912346
0.901157
0.890961
0.881826
0.873791
0.866877
0.861098
0.856464
0.852982
0.850662
0.849509
1.00082
0.9965
0.987874
0.976523
0.963713
0.950333
0.936989
0.924091
0.91192
0.900657
0.890409
0.88124
0.873183
0.866256
0.86047
0.85583
0.852346
0.850026
0.848874
1.00384
0.999273
0.98988
0.977733
0.964277
0.95042
0.936737
0.9236
0.911265
0.899891
0.88957
0.880353
0.872264
0.865317
0.859518
0.854872
0.851386
0.849066
0.847915
1.00801
1.0031
0.992568
0.979294
0.964965
0.950477
0.936351
0.92291
0.910367
0.898852
0.888437
0.879158
0.871029
0.864056
0.858242
0.85359
0.850102
0.847783
0.846631
1.01324
1.00808
0.995911
0.981132
0.965702
0.950448
0.935792
0.921991
0.909206
0.897528
0.887003
0.87765
0.869473
0.862472
0.856643
0.851984
0.848494
0.846174
0.845022
1.01824
1.01424
0.999855
0.983128
0.966386
0.950256
0.935008
0.92081
0.907759
0.8959
0.885255
0.875822
0.867595
0.860563
0.854718
0.850052
0.84656
0.844239
0.843086
1.02494
1.02182
1.00435
0.98512
0.966873
0.949807
0.933938
0.919327
0.905997
0.893952
0.883181
0.873666
0.865388
0.858327
0.852466
0.847794
0.844299
0.841978
0.840825
1416.95
1408.75
1391.44
1365.12
1329.39
1283.64
1227.06
1158.49
1076.54
977.53
864.785
721.228
381.947
26.1891
2.62728
2.01045
1.98298
2.01987
2.05221
2.04922
2.00988
1.93376
1.76398
1449.81
1441.86
1425.25
1400.01
1365.8
1322.09
1268.17
1203.1
1125.81
1033.5
929.891
798.648
390.061
14.7201
2.11973
1.87084
1.85622
1.8751
1.88762
1.87482
1.8328
1.75908
1.65211
1489.4
1481.75
1465.98
1442.07
1409.69
1368.44
1317.76
1256.95
1185.29
1100.76
1007.55
890.102
394.805
8.45994
1.85236
1.7368
1.73257
1.74488
1.74767
1.73139
1.69448
1.63657
1.56254
1535.51
1528.24
1513.43
1491.01
1460.74
1422.29
1375.29
1319.25
1253.78
1177.51
1094.82
990.841
393.607
4.71351
1.70223
1.62059
1.62013
1.62736
1.62476
1.60798
1.57619
1.52909
1.46846
1587.85
1581.01
1567.26
1546.49
1518.5
1483.11
1440.05
1389.05
1329.96
1261.93
1189.26
1097.77
386.446
2.82029
1.59559
1.51929
1.5168
1.51962
1.51412
1.49797
1.47048
1.43166
1.38287
1646.08
1639.72
1627.1
1608.07
1582.5
1550.29
1511.3
1465.41
1412.67
1352.53
1289.11
1208.94
373.608
2.28432
1.48197
1.42051
1.41766
1.41851
1.41238
1.39791
1.3747
1.34306
1.30414
1709.82
1703.98
1692.52
1675.29
1652.2
1623.22
1588.32
1547.48
1500.86
1448.16
1393.11
1323.04
357.385
1.82159
1.35394
1.3193
1.32067
1.32254
1.31765
1.30565
1.28658
1.26096
1.22975
1778.65
1773.34
1763.07
1747.65
1727.05
1701.3
1670.4
1634.45
1593.65
1547.84
1500.35
1439.38
338.722
1.50915
1.22734
1.21964
1.22768
1.2321
1.22927
1.21992
1.20459
1.18395
1.15887
1852.11
1847.36
1838.27
1824.64
1806.5
1783.88
1756.85
1725.54
1690.21
1650.76
1610.11
1557.48
318.171
1.33556
1.12266
1.13001
1.14232
1.14835
1.14711
1.13998
1.12775
1.11116
1.09098
1929.75
1925.55
1917.61
1905.72
1889.95
1870.34
1847
1820.07
1789.83
1756.24
1721.84
1676.93
296.295
1.23181
1.04718
1.05522
1.06645
1.0717
1.07079
1.06504
1.05517
1.04182
1.02559
2011.07
2007.41
2000.58
1990.36
1976.85
1960.11
1940.26
1917.44
1891.94
1863.78
1835.14
1797.48
273.564
1.14983
0.987882
0.992354
0.998669
1.00104
0.999186
0.993983
0.985861
0.975139
0.962198
2095.56
2092.41
2086.63
2078.01
2066.63
2052.61
2036.04
2017.09
1996.03
1972.95
1949.71
1918.93
250.423
1.07385
0.940345
0.936107
0.936035
0.934395
0.930761
0.925545
0.918756
0.910305
0.900263
2182.75
2180.11
2175.33
2168.23
2158.88
2147.4
2133.9
2118.58
2101.71
2083.37
2065.2
2041.07
227.211
1.0089
0.895037
0.882747
0.875656
0.869583
0.863882
0.858466
0.852879
0.846576
0.839282
2272.76
2270.58
2266.78
2261.09
2253.63
2244.53
2233.92
2222.03
2209.13
2195.26
2181.79
2163.8
204.881
0.961713
0.85111
0.829665
0.814726
0.80422
0.796759
0.791459
0.787313
0.783306
0.778829
2364.51
2362.61
2359.67
2355.27
2349.51
2342.55
2334.55
2325.77
2316.53
2306.94
2298.23
2286.49
177.225
0.929486
0.811185
0.773785
0.749592
0.735263
0.727224
0.723131
0.721195
0.719981
0.718615
2452.42
2450.7
2448.44
2445.15
2440.81
2435.62
2429.75
2423.49
2417.2
2411.27
2407.67
2404.51
156.722
1.04188
0.767863
0.707688
0.675218
0.659323
0.653097
0.652211
0.653843
0.656266
0.658507
2540.59
2539.53
2537.99
2535.67
2532.67
2529.13
2525.23
2521.23
2517.45
2514.21
2513.76
2511.07
345.529
0.969833
0.721698
0.618794
0.58474
0.573026
0.572696
0.577828
0.584905
0.592095
0.598585
2514.24
2511.64
2507.41
2500.91
2492.18
2481.2
2467.87
2451.71
2434.56
2398.48
2365.37
2021.84
588.101
1.2969
0.662202
0.494235
0.468825
0.472975
0.485347
0.500026
0.51472
0.527815
0.539192
848.16
843.325
834.818
822.295
805.702
785.264
760.893
731.836
702.294
636.439
581.369
179.816
175.115
53.2383
0.996656
0.295791
0.316581
0.356934
0.392164
0.420339
0.444159
0.464192
0.480932
-1.21619
-1.21024
-1.20369
-1.19399
-1.18145
-1.16631
-1.14885
-1.12895
-1.11014
-1.10801
-1.12699
-1.10911
-1.76768
14.2208
5.53618
0.244845
0.12944
0.23142
0.296355
0.341179
0.375384
0.402627
0.424741
-1.13573
-1.13187
-1.12501
-1.11488
-1.10168
-1.08533
-1.06538
-1.042
-1.01873
-0.991534
-0.954061
-0.986091
-1.17835
-0.863232
0.76013
-0.128089
-0.0188336
0.122763
0.209195
0.267929
0.31125
0.344877
0.371763
-1.04078
-1.03723
-1.0298
-1.01893
-1.0047
-0.986706
-0.964502
-0.938407
-0.909243
-0.872501
-0.833123
-0.82696
-0.841777
-0.704423
-0.484643
-0.240922
-0.0685209
0.055812
0.14297
0.206609
0.254869
0.292707
0.323088
-0.956686
-0.95298
-0.945386
-0.934227
-0.919366
-0.900388
-0.876937
-0.848964
-0.815704
-0.775292
-0.733918
-0.700263
-0.647976
-0.52294
-0.350762
-0.197945
-0.0779769
0.0195815
0.0970858
0.158533
0.207527
0.247075
0.279401
-0.876581
-0.872532
-0.864913
-0.853537
-0.838119
-0.81838
-0.794051
-0.764793
-0.729629
-0.687999
-0.641993
-0.589986
-0.519831
-0.420175
-0.30119
-0.186359
-0.0883011
-0.00548704
0.0635868
0.120921
0.168425
0.207886
0.240828
-0.80121
-0.797291
-0.789718
-0.77825
-0.762647
-0.742664
-0.718073
-0.688518
-0.653275
-0.612059
-0.564979
-0.509536
-0.440815
-0.357301
-0.266145
-0.176783
-0.0953652
-0.0236888
0.0381948
0.0911294
0.136192
0.174504
0.207104
-0.730552
-0.726916
-0.719382
-0.707966
-0.69257
-0.672907
-0.648724
-0.619735
-0.585472
-0.545597
-0.499679
-0.446349
-0.384169
-0.313876
-0.239675
-0.166587
-0.0981247
-0.036016
0.0191617
0.0675599
0.109686
0.146204
0.177804
-0.665039
-0.661457
-0.653993
-0.642824
-0.627912
-0.608956
-0.585687
-0.557873
-0.525241
-0.487513
-0.444357
-0.39528
-0.340204
-0.280299
-0.218146
-0.156712
-0.0982187
-0.0440806
0.00503554
0.0489883
0.087956
0.122299
0.152451
-0.604124
-0.600498
-0.593267
-0.582575
-0.568343
-0.550314
-0.528257
-0.501999
-0.471401
-0.436328
-0.396668
-0.352416
-0.303968
-0.252401
-0.199425
-0.146909
-0.0964351
-0.0490219
-0.00531302
0.034427
0.0701951
0.102158
0.130573
-0.546982
-0.543475
-0.536702
-0.526685
-0.51329
-0.496344
-0.47569
-0.451231
-0.42293
-0.390783
-0.354855
-0.315367
-0.272832
-0.228146
-0.182501
-0.137162
-0.0932546
-0.0515853
-0.0126988
0.0231061
0.0557311
0.0852231
0.111718
-0.493318
-0.490133
-0.483961
-0.474716
-0.462261
-0.446509
-0.427387
-0.404874
-0.379004
-0.349867
-0.317629
-0.282597
-0.24527
-0.206368
-0.166761
-0.127356
-0.0889841
-0.0522945
-0.0177282
0.0144189
0.0440038
0.0710023
0.0954718
-0.443182
-0.440402
-0.43484
-0.426365
-0.414889
-0.400389
-0.382862
-0.362348
-0.338928
-0.312744
-0.28401
-0.253044
-0.220294
-0.186335
-0.151831
-0.117463
-0.0838552
-0.0515346
-0.020868
0.0078769
0.0345428
0.0590669
0.0814576
-0.396498
-0.394079
-0.389052
-0.381294
-0.370787
-0.35755
-0.341626
-0.323092
-0.302058
-0.278689
-0.253211
-0.225924
-0.197216
-0.167555
-0.137459
-0.107453
-0.0780262
-0.0496117
-0.0224906
0.00307981
0.0269514
0.0490451
0.0693408
-0.352847
-0.3507
-0.346125
-0.339041
-0.329483
-0.317496
-0.303151
-0.28654
-0.267789
-0.247068
-0.224597
-0.200646
-0.175548
-0.149687
-0.123475
-0.0973265
-0.0716279
-0.0467145
-0.022889
-0.000302721
0.0208951
0.0406168
0.0588266
-0.311619
-0.309671
-0.305505
-0.29908
-0.290464
-0.279716
-0.266914
-0.252162
-0.235588
-0.217357
-0.197672
-0.176773
-0.154945
-0.132503
-0.109781
-0.0871096
-0.0648009
-0.043132
-0.0223364
-0.00255017
0.0160924
0.0335086
0.0496575
-0.272238
-0.270458
-0.266696
-0.260943
-0.253276
-0.243759
-0.232473
-0.219522
-0.205031
-0.189154
-0.172072
-0.153998
-0.135173
-0.115857
-0.0963214
-0.0768324
-0.0576412
-0.038975
-0.0210401
-0.00388548
0.0123095
0.0274872
0.0416089
-0.234296
-0.232687
-0.229348
-0.224289
-0.217583
-0.209293
-0.199498
-0.188298
-0.17581
-0.162171
-0.147544
-0.132112
-0.11608
-0.0996602
-0.0830731
-0.0665325
-0.0502385
-0.0343654
-0.0190453
-0.00447472
0.00935087
0.0223515
0.0344833
-0.19756
-0.196141
-0.193247
-0.188901
-0.183163
-0.176092
-0.167763
-0.158266
-0.147707
-0.136209
-0.123912
-0.110974
-0.0975642
-0.0838568
-0.0700284
-0.0562502
-0.042681
-0.0294601
-0.0167058
-0.00452413
0.00703528
0.0179235
0.0281051
-0.161894
-0.160687
-0.158258
-0.154633
-0.14986
-0.143994
-0.1371
-0.129259
-0.120562
-0.111118
-0.101047
-0.0904793
-0.0795524
-0.0684069
-0.0571832
-0.0460162
-0.0350295
-0.0243311
-0.0140129
-0.00414784
0.00521796
0.0140487
0.0223174
-0.127202
-0.126222
-0.124267
-0.12136
-0.117542
-0.112858
-0.107366
-0.101133
-0.0942387
-0.0867741
-0.0788383
-0.0705365
-0.0619775
-0.0532721
-0.0445294
-0.0358524
-0.0273338
-0.0190536
-0.0110785
-0.00346037
0.00377033
0.0105889
0.0169779
-0.0934816
-0.0927378
-0.091254
-0.0890524
-0.0861644
-0.0826293
-0.0784941
-0.0738151
-0.0686586
-0.0630979
-0.0572114
-0.0510808
-0.0447898
-0.0384224
-0.0320594
-0.0257749
-0.0196343
-0.013692
-0.00799093
-0.00256094
0.00257603
0.00741786
0.011955
-0.0604603
-0.0599632
-0.0589519
-0.0574477
-0.0554755
-0.053067
-0.0502597
-0.0470984
-0.0436345
-0.0399241
-0.0360255
-0.0319989
-0.027905
-0.0238027
-0.0197466
-0.0157852
-0.0119586
-0.00829838
-0.00482651
-0.00155343
0.00152478
0.00441671
0.00712514
-0.0261829
-0.025964
-0.025469
-0.0247239
-0.0237471
-0.0225589
-0.0211839
-0.0196507
-0.0179915
-0.0162406
-0.0144336
-0.012606
-0.0107922
-0.00902396
-0.00732885
-0.00572916
-0.00424138
-0.00287593
-0.00163669
-0.000518797
0.000508016
0.00146637
0.00236431
1.38131
1.31708
1.23503
1.13775
1.45313
1.32516
1.22909
1.14086
1.43096
1.30591
1.21249
1.1317
1.37432
1.27189
1.18736
1.11416
1.31248
1.22935
1.15525
1.08989
1.24929
1.18148
1.11787
1.06032
1.18612
1.13072
1.07678
1.0267
1.12386
1.07854
1.03317
0.99005
1.06278
1.02577
0.987896
0.951156
1.00291
0.972856
0.94156
0.910641
0.944145
0.920054
0.894587
0.868987
0.886289
0.867486
0.847276
0.826572
0.829127
0.815202
0.799845
0.783699
0.772472
0.763236
0.752471
0.740626
0.716224
0.711646
0.705319
0.697582
0.660401
0.660549
0.658571
0.654785
0.605159
0.610137
0.612438
0.612457
0.550807
0.560683
0.567169
0.570831
0.497791
0.512525
0.523039
0.530143
0.44672
0.466065
0.480341
0.490624
0.398292
0.421745
0.439376
0.452493
0.353163
0.379974
0.400425
0.415961
0.311792
0.341062
0.363706
0.381198
0.274365
0.305177
0.329362
0.348319
0.240826
0.272349
0.297448
0.317386
0.210971
0.242495
0.267941
0.288408
0.184514
0.21546
0.24076
0.261344
0.161132
0.19104
0.215779
0.236121
0.140493
0.169006
0.192843
0.212635
0.12227
0.149119
0.171782
0.190765
0.106156
0.131143
0.152417
0.170379
0.0918662
0.114851
0.134571
0.151341
0.0791435
0.10003
0.118071
0.133511
0.0677554
0.0864802
0.102751
0.116754
0.057494
0.0740201
0.0884547
0.100938
0.0481723
0.0624803
0.0750325
0.0859341
0.0396213
0.0517047
0.0623441
0.0716178
0.0316865
0.0415474
0.050256
0.0578692
0.0242254
0.0318719
0.0386407
0.0445721
0.0171052
0.0225486
0.0273758
0.0316136
0.0101999
0.0134543
0.0163439
0.0188841
0.00338396
0.0044647
0.00542543
0.00627103
1.06297
1.0359
1.01126
0.987822
0.96715
0.948565
0.931721
0.916465
0.902703
0.890368
0.879405
0.869767
0.861413
0.854308
0.848427
0.843746
0.84025
0.837931
0.836778
1.07851
1.04201
1.01296
0.987265
0.96459
0.944534
0.926657
0.910688
0.896443
0.88379
0.872623
0.862862
0.854441
0.847307
0.841418
0.836742
0.833256
0.830945
0.829798
1.07566
1.03924
1.00864
0.981898
0.958339
0.937533
0.919084
0.902704
0.888182
0.875354
0.86409
0.854286
0.845857
0.838738
0.832876
0.82823
0.824772
0.822481
0.821344
1.0632
1.02859
0.998412
0.971811
0.948243
0.927339
0.908789
0.892339
0.877788
0.864968
0.853742
0.843995
0.835637
0.828592
0.822801
0.818217
0.814808
0.812553
0.811434
1.0437
1.0116
0.982933
0.957314
0.934407
0.913955
0.895732
0.879543
0.865214
0.852595
0.841554
0.83198
0.823779
0.816875
0.811205
0.80672
0.803388
0.801184
0.800091
1.01887
0.989591
0.962979
0.938881
0.917121
0.897543
0.880004
0.864364
0.85049
0.838256
0.827547
0.818261
0.810307
0.803613
0.798117
0.793771
0.790543
0.78841
0.787353
0.989917
0.963565
0.939284
0.917037
0.896753
0.878361
0.861781
0.846928
0.833709
0.822025
0.811783
0.802891
0.795271
0.788854
0.783583
0.779417
0.776322
0.774277
0.773264
0.957758
0.93434
0.91251
0.892297
0.873701
0.856707
0.841291
0.827411
0.815009
0.804015
0.794354
0.785952
0.778741
0.772663
0.767668
0.763717
0.760782
0.758843
0.757883
0.923135
0.902588
0.883234
0.865141
0.848353
0.832898
0.81879
0.80602
0.79456
0.784364
0.775378
0.767546
0.760811
0.755125
0.750447
0.746746
0.743995
0.742177
0.741277
0.886647
0.868866
0.851956
0.836006
0.821086
0.80725
0.79454
0.782974
0.772545
0.76323
0.754992
0.747791
0.741584
0.736335
0.732012
0.728587
0.72604
0.724356
0.723521
0.848775
0.833641
0.819111
0.805284
0.792244
0.780065
0.768805
0.758498
0.749159
0.740779
0.733341
0.726817
0.721179
0.716401
0.712459
0.709332
0.707005
0.705465
0.704701
0.809914
0.797303
0.785072
0.773322
0.762146
0.751627
0.741833
0.732814
0.724594
0.717184
0.710576
0.70476
0.699719
0.695436
0.691894
0.689081
0.686985
0.685596
0.684906
0.770395
0.760187
0.750166
0.740431
0.731079
0.722198
0.713863
0.706133
0.699042
0.692613
0.686853
0.681761
0.677332
0.673557
0.670429
0.66794
0.666081
0.664848
0.664234
0.730502
0.722584
0.71468
0.706888
0.699304
0.69202
0.685117
0.678657
0.672686
0.667235
0.662323
0.657959
0.654147
0.650887
0.648177
0.646014
0.644396
0.64332
0.642784
0.690487
0.684754
0.678873
0.672941
0.667058
0.661317
0.6558
0.650577
0.6457
0.64121
0.637134
0.633491
0.630292
0.627544
0.62525
0.623413
0.622033
0.621114
0.620656
0.650583
0.646931
0.642976
0.638818
0.634558
0.630291
0.626104
0.62207
0.61825
0.614692
0.611431
0.608492
0.605893
0.603646
0.60176
0.600241
0.599097
0.598332
0.59795
0.611014
0.609338
0.607207
0.604726
0.602001
0.59913
0.596204
0.593302
0.590492
0.587827
0.585349
0.583088
0.581068
0.579306
0.577814
0.576605
0.575688
0.575074
0.574767
0.571998
0.572184
0.571764
0.570856
0.569568
0.568006
0.566265
0.564429
0.562573
0.560753
0.559018
0.557402
0.555932
0.554631
0.553516
0.552603
0.551905
0.551436
0.551202
0.53375
0.535667
0.536835
0.537383
0.537427
0.537078
0.536437
0.535594
0.534627
0.533597
0.532556
0.531544
0.530591
0.529724
0.528965
0.528332
0.527843
0.527513
0.527347
0.496472
0.499977
0.502589
0.504467
0.505728
0.506489
0.506857
0.506926
0.506777
0.506474
0.506074
0.505619
0.505145
0.504681
0.504253
0.503884
0.503591
0.503391
0.503291
0.460344
0.465267
0.469187
0.472255
0.474608
0.47637
0.477648
0.478541
0.479132
0.479488
0.479669
0.479722
0.479685
0.479591
0.479469
0.479343
0.479232
0.479153
0.479113
0.42554
0.431695
0.436752
0.440867
0.444183
0.446829
0.448914
0.450539
0.45179
0.452726
0.453429
0.453938
0.454295
0.454535
0.454691
0.454786
0.454841
0.454872
0.454887
0.392203
0.399389
0.405404
0.41041
0.414552
0.417958
0.420741
0.423001
0.424823
0.426279
0.427436
0.428345
0.42905
0.429588
0.429989
0.430283
0.430487
0.430615
0.43068
0.360438
0.368443
0.375233
0.380969
0.385794
0.389834
0.393203
0.395999
0.398308
0.400205
0.401753
0.403008
0.404015
0.404811
0.405429
0.405895
0.406228
0.406442
0.406551
0.330306
0.338919
0.346299
0.352602
0.357965
0.362514
0.366357
0.369591
0.372301
0.374562
0.376438
0.377984
0.379245
0.380261
0.381062
0.381674
0.382116
0.382403
0.382548
0.301827
0.310844
0.318633
0.325342
0.331103
0.336034
0.34024
0.343816
0.346843
0.349396
0.351536
0.353317
0.354786
0.355981
0.356931
0.357664
0.358196
0.358542
0.358716
0.274985
0.284212
0.292239
0.299202
0.305224
0.310417
0.31488
0.318704
0.321966
0.324738
0.327079
0.329042
0.330672
0.332006
0.333074
0.3339
0.334502
0.334895
0.335092
0.249731
0.258993
0.267098
0.274171
0.280327
0.285668
0.290287
0.294269
0.297687
0.300609
0.30309
0.305182
0.306928
0.308362
0.309515
0.31041
0.311064
0.311492
0.311706
0.225992
0.23513
0.24317
0.250224
0.256395
0.261778
0.266459
0.270514
0.274014
0.277018
0.279581
0.281751
0.283568
0.285067
0.286274
0.287214
0.287903
0.288354
0.288579
0.203678
0.212554
0.220401
0.227318
0.233398
0.238726
0.243381
0.247431
0.25094
0.253965
0.256555
0.258755
0.260602
0.26213
0.263364
0.264326
0.265033
0.265496
0.265727
0.182685
0.19118
0.198722
0.205399
0.211293
0.216479
0.221027
0.224999
0.228453
0.23144
0.234006
0.236191
0.23803
0.239554
0.240787
0.241751
0.24246
0.242926
0.243156
0.162903
0.170916
0.178058
0.184404
0.190027
0.194993
0.199362
0.203191
0.20653
0.209426
0.21192
0.214048
0.215844
0.217335
0.218543
0.219489
0.220185
0.220643
0.220869
0.144218
0.151664
0.158324
0.164262
0.169541
0.174217
0.178344
0.18197
0.185142
0.187898
0.190277
0.192312
0.194032
0.195461
0.196622
0.197531
0.198202
0.198642
0.198859
0.126515
0.133324
0.139433
0.144897
0.149767
0.154094
0.157922
0.161295
0.164251
0.166826
0.169052
0.17096
0.172574
0.173918
0.17501
0.175866
0.176497
0.176913
0.177116
0.109679
0.115793
0.121294
0.126227
0.130636
0.134562
0.138044
0.141119
0.143818
0.146174
0.148213
0.149963
0.151446
0.152681
0.153686
0.154474
0.155056
0.155438
0.155625
0.0935967
0.09897
0.103816
0.108172
0.112074
0.115557
0.118652
0.121389
0.123796
0.1259
0.127723
0.129289
0.130618
0.131725
0.132627
0.133334
0.133855
0.134199
0.134365
0.0781576
0.0827533
0.0869069
0.0906484
0.0940066
0.0970094
0.0996825
0.10205
0.104135
0.105959
0.107542
0.108902
0.110056
0.11102
0.111804
0.112418
0.112872
0.113171
0.113315
0.063253
0.0670429
0.0704747
0.0735716
0.0763562
0.0788499
0.081073
0.0830444
0.0847822
0.0863035
0.0876247
0.0887607
0.0897252
0.0905301
0.0911853
0.0916992
0.0920784
0.0923281
0.0924488
0.0487762
0.0517401
0.0544281
0.0568575
0.059045
0.0610065
0.0627571
0.0643108
0.0656815
0.0668822
0.0679254
0.0688227
0.0695847
0.0702206
0.0707383
0.0711443
0.0714441
0.0716417
0.0717368
0.0346228
0.0367468
0.0386755
0.0404208
0.0419941
0.0434063
0.0446675
0.0457876
0.0467763
0.0476427
0.0483958
0.0490437
0.049594
0.0500531
0.050427
0.0507202
0.0509369
0.0510801
0.0511482
0.0206906
0.0219667
0.0231266
0.0241771
0.0251249
0.0259761
0.0267368
0.0274126
0.0280094
0.0285325
0.0289873
0.0293786
0.029711
0.0299883
0.0302142
0.0303914
0.0305225
0.0306095
0.03065
0.00687329
0.00729903
0.0076863
0.00803735
0.00835429
0.00863911
0.00889374
0.00912007
0.00931997
0.00949525
0.00964767
0.00977886
0.0098903
0.00998331
0.0100591
0.0101186
0.0101626
0.010192
0.0102054
)
;

boundaryField
{
    leftWall
    {
        type            fixedFluxPressure;
        gradient        uniform 0;
        value           nonuniform List<scalar> 
50
(
1355.1
1356.6
1359.63
1364.2
1370.31
1377.97
1387.17
1397.84
1416.95
1449.81
1489.4
1535.51
1587.85
1646.08
1709.82
1778.65
1852.11
1929.75
2011.07
2095.56
2182.75
2272.76
2364.51
2452.42
2540.59
2514.24
848.16
-1.21619
-1.13573
-1.04078
-0.956686
-0.876581
-0.80121
-0.730552
-0.665039
-0.604124
-0.546982
-0.493318
-0.443182
-0.396498
-0.352847
-0.311619
-0.272238
-0.234296
-0.19756
-0.161894
-0.127202
-0.0934816
-0.0604603
-0.0261829
)
;
    }
    rightWall
    {
        type            fixedFluxPressure;
        gradient        uniform 0;
        value           nonuniform List<scalar> 
50
(
0.849819
0.849509
0.848874
0.847915
0.846631
0.845022
0.843086
0.840825
0.836778
0.829798
0.821344
0.811434
0.800091
0.787353
0.773264
0.757883
0.741277
0.723521
0.704701
0.684906
0.664234
0.642784
0.620656
0.59795
0.574767
0.551202
0.527347
0.503291
0.479113
0.454887
0.43068
0.406551
0.382548
0.358716
0.335092
0.311706
0.288579
0.265727
0.243156
0.220869
0.198859
0.177116
0.155625
0.134365
0.113315
0.0924488
0.0717368
0.0511482
0.03065
0.0102054
)
;
    }
    lowerWall
    {
        type            fixedFluxPressure;
        gradient        uniform 0;
        value           nonuniform List<scalar> 
62
(
1355.1
1346.55
1328.03
1299.82
1261.56
1212.59
1152.02
1078.61
991.205
886.363
763.917
627.536
441.69
210.327
58.4781
10.1162
5.08457
4.22037
3.45455
3.04351
2.80793
2.66752
2.6033
2.6033
2.58335
2.53862
2.47225
2.38705
2.28412
2.16202
2.02006
1.38131
1.31708
1.23503
1.13775
0.997881
0.998842
1.00082
1.00384
1.00801
1.01324
1.01824
1.02494
0.997881
0.993829
0.985903
0.975303
0.963122
0.95022
0.937223
0.924568
0.91256
0.901406
0.891232
0.882112
0.874088
0.867182
0.861407
0.856776
0.853295
0.850975
0.849819
)
;
    }
    atmosphere
    {
        type            totalPressure;
        rho             rho;
        psi             none;
        gamma           1;
        p0              uniform 0;
        value           nonuniform List<scalar> 
46
(
-0.00762548
-0.00759376
-0.00739042
-0.00708492
-0.00668521
-0.00620232
-0.00565024
-0.00504565
-0.00440724
-0.00375499
-0.00310931
-0.00248996
-0.0019151
-0.00140034
-0.000958002
-0.000596698
-0.000321092
-0.000132048
-2.70371e-05
0
0
0
0
0
0
0
0
0
0
0
0
0
0
0
0
0
0
0
0
0
0
0
0
0
0
0
)
;
    }
    defaultFaces
    {
        type            empty;
    }
}


// ************************************************************************* //
