/*--------------------------------*- C++ -*----------------------------------*\
| =========                 |                                                 |
| \\      /  F ield         | OpenFOAM: The Open Source CFD Toolbox           |
|  \\    /   O peration     | Version:  2206                                  |
|   \\  /    A nd           | Website:  www.openfoam.com                      |
|    \\/     M anipulation  |                                                 |
\*---------------------------------------------------------------------------*/
FoamFile
{
    version     2.0;
    format      ascii;
    arch        "LSB;label=32;scalar=64";
    class       surfaceScalarField;
    location    "0.05";
    object      phi;
}
// * * * * * * * * * * * * * * * * * * * * * * * * * * * * * * * * * * * * * //

dimensions      [0 3 -1 0 0 0 0];

oriented        oriented;

internalField   nonuniform List<scalar> 
4432
(
3.19411e-06
-3.19411e-06
6.5802e-06
-3.38612e-06
9.99559e-06
-3.41538e-06
1.35549e-05
-3.55927e-06
1.73307e-05
-3.77586e-06
2.1405e-05
-4.07433e-06
2.58849e-05
-4.47993e-06
3.09177e-05
-5.03279e-06
3.67274e-05
-5.8097e-06
4.36069e-05
-6.8795e-06
5.23415e-05
-8.73455e-06
6.28985e-05
-1.0557e-05
7.73691e-05
-1.44706e-05
9.43824e-05
-1.70133e-05
0.000108755
-1.43728e-05
0.000110825
-2.07011e-06
0.000105046
5.77981e-06
8.65648e-05
1.8481e-05
6.30371e-05
2.35275e-05
4.33496e-05
1.96879e-05
2.72245e-05
1.61241e-05
1.31888e-05
1.40357e-05
1.31899e-05
3.19057e-06
-6.38465e-06
6.56921e-06
-6.7648e-06
9.97751e-06
-6.82371e-06
1.3527e-05
-7.10874e-06
1.7289e-05
-7.53794e-06
2.13437e-05
-8.12903e-06
2.57953e-05
-8.93151e-06
3.07872e-05
-1.00247e-05
3.652e-05
-1.15425e-05
4.33243e-05
-1.36838e-05
5.16641e-05
-1.70744e-05
6.16489e-05
-2.05419e-05
7.53954e-05
-2.82172e-05
9.3695e-05
-3.53128e-05
0.000114892
-3.55699e-05
0.000132492
-1.96703e-05
0.000131045
7.22697e-06
0.000109884
3.96425e-05
7.80939e-05
5.53152e-05
4.99499e-05
4.7833e-05
3.00598e-05
3.60144e-05
1.45726e-05
2.952e-05
2.77635e-05
3.17274e-06
-9.55738e-06
6.52729e-06
-1.01194e-05
9.91068e-06
-1.02071e-05
1.34305e-05
-1.06285e-05
1.71553e-05
-1.12627e-05
2.11606e-05
-1.21343e-05
2.55442e-05
-1.33152e-05
3.04378e-05
-1.49183e-05
3.60171e-05
-1.71218e-05
4.25858e-05
-2.02525e-05
5.04381e-05
-2.49267e-05
6.03058e-05
-3.04096e-05
7.51063e-05
-4.30176e-05
9.25241e-05
-5.27306e-05
0.000104416
-4.7462e-05
0.000114797
-3.00516e-05
0.000109396
1.26276e-05
8.68526e-05
6.21865e-05
6.11001e-05
8.10659e-05
4.14596e-05
6.74741e-05
2.69017e-05
5.05727e-05
1.36213e-05
4.27975e-05
4.13857e-05
3.14553e-06
-1.27029e-05
6.46458e-06
-1.34384e-05
9.81091e-06
-1.35534e-05
1.3287e-05
-1.41046e-05
1.69571e-05
-1.49327e-05
2.08905e-05
-1.60678e-05
2.51754e-05
-1.76001e-05
2.9927e-05
-1.96698e-05
3.52931e-05
-2.24879e-05
4.15203e-05
-2.64797e-05
4.87969e-05
-3.22033e-05
5.78003e-05
-3.9413e-05
7.08351e-05
-5.60523e-05
8.37224e-05
-6.5618e-05
9.04409e-05
-5.41808e-05
8.93384e-05
-2.89489e-05
7.52894e-05
2.66757e-05
5.5834e-05
8.16423e-05
4.32418e-05
9.36577e-05
3.42656e-05
7.64513e-05
2.43295e-05
6.05082e-05
1.29942e-05
5.41309e-05
5.43808e-05
3.10927e-06
-1.58122e-05
6.38188e-06
-1.6711e-05
9.67962e-06
-1.68511e-05
1.30987e-05
-1.75237e-05
1.6698e-05
-1.8532e-05
2.05392e-05
-1.9909e-05
2.46986e-05
-2.17595e-05
2.92722e-05
-2.42434e-05
3.43745e-05
-2.75903e-05
4.01872e-05
-3.22924e-05
4.67888e-05
-3.88048e-05
5.46539e-05
-4.7278e-05
6.51055e-05
-6.65039e-05
7.5154e-05
-7.56664e-05
7.76405e-05
-5.66673e-05
6.55583e-05
-1.68674e-05
4.55075e-05
4.67262e-05
3.40917e-05
9.30598e-05
3.25535e-05
9.51946e-05
2.95883e-05
7.94153e-05
2.2572e-05
6.75253e-05
1.28237e-05
6.38786e-05
6.72044e-05
3.06435e-06
-1.88765e-05
6.28047e-06
-1.99271e-05
9.51896e-06
-2.00896e-05
1.2869e-05
-2.08738e-05
1.63831e-05
-2.20461e-05
2.01147e-05
-2.36406e-05
2.41267e-05
-2.57716e-05
2.84948e-05
-2.86115e-05
3.32965e-05
-3.23921e-05
3.86536e-05
-3.76495e-05
4.45229e-05
-4.46741e-05
5.12489e-05
-5.40039e-05
5.94809e-05
-7.4736e-05
6.74137e-05
-8.35992e-05
6.52454e-05
-5.44989e-05
4.53203e-05
3.05772e-06
2.65922e-05
6.54543e-05
2.44403e-05
9.52122e-05
2.76756e-05
9.19574e-05
2.67141e-05
8.03768e-05
2.1587e-05
7.26536e-05
1.3275e-05
7.21895e-05
8.04793e-05
3.01199e-06
-2.18885e-05
6.1626e-06
-2.30777e-05
9.33284e-06
-2.32599e-05
1.26039e-05
-2.41449e-05
1.60215e-05
-2.54636e-05
1.96307e-05
-2.72497e-05
2.34808e-05
-2.96217e-05
2.76271e-05
-3.27578e-05
3.21141e-05
-3.68791e-05
3.70057e-05
-4.25411e-05
4.21243e-05
-4.97927e-05
4.77327e-05
-5.96123e-05
5.41892e-05
-8.11925e-05
5.99693e-05
-8.93792e-05
5.34165e-05
-4.7946e-05
3.05106e-05
2.59635e-05
1.85018e-05
7.74611e-05
2.14012e-05
9.23136e-05
2.51344e-05
8.82235e-05
2.49441e-05
8.05675e-05
2.14074e-05
7.6191e-05
1.4791e-05
7.88047e-05
9.52698e-05
2.95376e-06
-2.48423e-05
6.02927e-06
-2.61532e-05
9.1238e-06
-2.63544e-05
1.23084e-05
-2.73295e-05
1.56217e-05
-2.87769e-05
1.91004e-05
-3.07283e-05
2.2782e-05
-3.33033e-05
2.67029e-05
-3.66787e-05
3.08855e-05
-4.10617e-05
3.53666e-05
-4.70223e-05
3.97293e-05
-5.41554e-05
4.42358e-05
-6.41187e-05
4.89985e-05
-8.59552e-05
5.26038e-05
-9.29845e-05
4.16467e-05
-3.69894e-05
2.16867e-05
4.59233e-05
1.66478e-05
8.24991e-05
2.04764e-05
8.84853e-05
2.35472e-05
8.5153e-05
2.39516e-05
8.01629e-05
2.19762e-05
7.81663e-05
1.65756e-05
8.42044e-05
0.000111845
1.51768e-06
-1.51768e-06
2.83786e-06
-1.31973e-06
3.77188e-06
-9.33672e-07
4.34285e-06
-5.7068e-07
4.61781e-06
-2.74653e-07
4.67012e-06
-5.21166e-08
4.56445e-06
1.05905e-07
4.34947e-06
2.1516e-07
4.0604e-06
2.89061e-07
3.72162e-06
3.38732e-07
3.34985e-06
3.71809e-07
2.9563e-06
3.93485e-07
2.54859e-06
4.07549e-07
2.13192e-06
4.16596e-07
1.70962e-06
4.22283e-07
1.28388e-06
4.25751e-07
8.56069e-07
4.27789e-07
4.27205e-07
4.28682e-07
4.26667e-07
1.60622e-06
-3.12344e-06
2.98957e-06
-2.70245e-06
3.9442e-06
-1.88778e-06
4.51244e-06
-1.13848e-06
4.77571e-06
-5.37414e-07
4.81622e-06
-9.22868e-08
4.70153e-06
2.20779e-07
4.47755e-06
4.39292e-07
4.1786e-06
5.88124e-07
3.82912e-06
6.88233e-07
3.44599e-06
7.54905e-07
3.04071e-06
7.9872e-07
2.6211e-06
8.2712e-07
2.19239e-06
8.45255e-07
1.758e-06
8.56579e-07
1.32014e-06
8.6341e-07
8.80168e-07
8.67303e-07
4.38764e-07
8.69194e-07
8.64984e-07
1.73309e-06
-4.85618e-06
3.18944e-06
-4.15834e-06
4.14086e-06
-2.83872e-06
4.67344e-06
-1.67057e-06
4.89622e-06
-7.5973e-07
4.90068e-06
-9.63452e-08
4.75692e-06
3.64888e-07
4.51172e-06
6.8489e-07
4.1984e-06
9.0173e-07
3.83953e-06
1.04715e-06
3.45046e-06
1.14389e-06
3.0416e-06
1.20756e-06
2.62e-06
1.2488e-06
2.19035e-06
1.27495e-06
1.75571e-06
1.29113e-06
1.31808e-06
1.30083e-06
8.78599e-07
1.30634e-06
4.37968e-07
1.30907e-06
1.3025e-06
1.9423e-06
-6.7982e-06
3.51342e-06
-5.72901e-06
4.44901e-06
-3.7738e-06
4.9183e-06
-2.13925e-06
5.07578e-06
-9.16802e-07
5.02612e-06
-4.63031e-08
4.84313e-06
5.48193e-07
4.56985e-06
9.58038e-07
4.23718e-06
1.23422e-06
3.86519e-06
1.41927e-06
3.46725e-06
1.54205e-06
3.05239e-06
1.62245e-06
2.62676e-06
1.67433e-06
2.19447e-06
1.70722e-06
1.75815e-06
1.72751e-06
1.31943e-06
1.73949e-06
8.79254e-07
1.74606e-06
4.38246e-07
1.74929e-06
1.74032e-06
2.25892e-06
-9.05685e-06
3.99172e-06
-7.46128e-06
4.8826e-06
-4.66427e-06
5.24905e-06
-2.50523e-06
5.30995e-06
-9.77522e-07
5.19011e-06
7.34674e-08
4.95377e-06
7.84545e-07
4.64434e-06
1.26757e-06
4.28704e-06
1.59163e-06
3.89826e-06
1.80797e-06
3.48889e-06
1.95116e-06
3.06634e-06
2.04481e-06
2.63561e-06
2.10513e-06
2.19994e-06
2.14312e-06
1.76139e-06
2.16621e-06
1.32121e-06
2.1795e-06
8.80135e-07
2.1866e-06
4.3862e-07
2.19006e-06
2.17861e-06
2.68751e-06
-1.17441e-05
4.66258e-06
-9.43584e-06
5.45737e-06
-5.45881e-06
5.66543e-06
-2.71288e-06
5.59596e-06
-9.07709e-07
5.3837e-06
2.8604e-07
5.08412e-06
1.08435e-06
4.73174e-06
1.6201e-06
4.34537e-06
1.97801e-06
3.93686e-06
2.21624e-06
3.51412e-06
2.37362e-06
3.08259e-06
2.47633e-06
2.64585e-06
2.54213e-06
2.20617e-06
2.58303e-06
1.76498e-06
2.60737e-06
1.32313e-06
2.62101e-06
8.81079e-07
2.62811e-06
4.39028e-07
2.63151e-06
2.61742e-06
3.4091e-06
-1.5153e-05
5.62115e-06
-1.16474e-05
6.19255e-06
-6.02948e-06
6.16196e-06
-2.68181e-06
5.92254e-06
-6.6772e-07
5.60042e-06
6.08665e-07
5.22868e-06
1.45633e-06
4.82823e-06
2.02062e-06
4.40959e-06
2.39666e-06
3.97928e-06
2.64655e-06
3.54182e-06
2.8112e-06
3.10034e-06
2.9181e-06
2.6569e-06
2.98586e-06
2.21275e-06
3.02723e-06
1.76867e-06
3.05124e-06
1.32506e-06
3.06425e-06
8.8201e-07
3.07074e-06
4.39428e-07
3.07365e-06
3.05669e-06
6.39731e-06
-2.155e-05
7.31797e-06
-1.25676e-05
7.13358e-06
-5.84468e-06
6.72842e-06
-2.27632e-06
6.27395e-06
-2.12984e-07
5.83075e-06
1.05197e-06
5.38165e-06
1.9053e-06
4.93033e-06
2.47171e-06
4.47752e-06
2.84933e-06
4.0241e-06
3.10001e-06
3.57097e-06
3.26457e-06
3.11886e-06
3.37048e-06
2.66824e-06
3.43658e-06
2.21935e-06
3.47603e-06
1.77226e-06
3.49813e-06
1.32686e-06
3.50944e-06
8.82838e-07
3.51453e-06
4.39765e-07
3.51644e-06
3.49637e-06
6.05834e-06
-3.09007e-05
1.2331e-05
-3.24259e-05
1.86336e-05
-3.2657e-05
2.50921e-05
-3.3788e-05
3.17647e-05
-3.54495e-05
3.87026e-05
-3.76662e-05
4.59506e-05
-4.05513e-05
5.35338e-05
-4.42619e-05
6.14659e-05
-4.89938e-05
6.95547e-05
-5.51111e-05
7.8021e-05
-6.26217e-05
8.59641e-05
-7.20617e-05
9.24881e-05
-9.24792e-05
9.18633e-05
-9.23596e-05
5.97904e-05
-4.91732e-06
3.61609e-05
6.95533e-05
3.58471e-05
8.28123e-05
4.18533e-05
8.24789e-05
4.6979e-05
8.00271e-05
5.00524e-05
7.70893e-05
5.27591e-05
7.54596e-05
6.06855e-05
7.62775e-05
7.95542e-05
9.2977e-05
5.70194e-06
-3.66026e-05
1.155e-05
-3.82739e-05
1.74163e-05
-3.85232e-05
2.33848e-05
-3.97566e-05
2.94846e-05
-4.15493e-05
3.57337e-05
-4.39153e-05
4.21342e-05
-4.69518e-05
4.86584e-05
-5.07861e-05
5.52347e-05
-5.55701e-05
6.16755e-05
-6.15519e-05
6.77809e-05
-6.87271e-05
7.30186e-05
-7.72994e-05
7.65395e-05
-9.60001e-05
7.07436e-05
-8.65638e-05
4.17178e-05
2.41089e-05
3.33088e-05
7.79626e-05
3.5338e-05
8.07823e-05
3.97295e-05
7.80875e-05
4.43885e-05
7.53678e-05
4.92291e-05
7.22487e-05
5.57717e-05
6.89172e-05
6.6882e-05
6.51673e-05
6.13968e-05
8.50391e-05
5.30835e-06
-4.19109e-05
1.06978e-05
-4.36634e-05
1.60956e-05
-4.39209e-05
2.15478e-05
-4.52089e-05
2.70591e-05
-4.70606e-05
3.26225e-05
-4.94788e-05
3.82109e-05
-5.25401e-05
4.37642e-05
-5.63393e-05
4.91743e-05
-6.09803e-05
5.42465e-05
-6.66241e-05
5.87083e-05
-7.3189e-05
6.21836e-05
-8.07747e-05
6.41039e-05
-9.79205e-05
5.22961e-05
-7.47562e-05
2.961e-05
4.67939e-05
2.91173e-05
7.84554e-05
3.29466e-05
7.69524e-05
3.7123e-05
7.39109e-05
4.14558e-05
7.10345e-05
4.60442e-05
6.76612e-05
5.1258e-05
6.37037e-05
5.76254e-05
5.88e-05
5.24877e-05
6.65337e-05
4.89131e-06
-4.68022e-05
9.80659e-06
-4.85786e-05
1.47228e-05
-4.88372e-05
1.96534e-05
-5.01395e-05
2.45846e-05
-5.19918e-05
2.94925e-05
-5.43867e-05
3.43328e-05
-5.73804e-05
3.90305e-05
-6.10369e-05
4.3469e-05
-6.54188e-05
4.74665e-05
-7.06216e-05
5.07872e-05
-7.65097e-05
5.31804e-05
-8.3168e-05
5.42655e-05
-9.90055e-05
3.75773e-05
-5.80687e-05
2.4245e-05
6.01261e-05
2.66312e-05
7.60694e-05
3.05075e-05
7.30755e-05
3.42487e-05
7.01696e-05
3.80227e-05
6.72605e-05
4.18545e-05
6.38301e-05
4.5793e-05
5.97653e-05
4.9823e-05
5.47693e-05
4.85473e-05
5.37628e-05
4.46398e-06
-5.12662e-05
8.90458e-06
-5.30193e-05
1.33415e-05
-5.32742e-05
1.77614e-05
-5.45593e-05
2.21381e-05
-5.63685e-05
2.64378e-05
-5.86863e-05
3.06081e-05
-6.15507e-05
3.45713e-05
-6.50002e-05
3.82178e-05
-6.90654e-05
4.13924e-05
-7.37961e-05
4.3914e-05
-7.90313e-05
4.56263e-05
-8.48803e-05
4.62702e-05
-9.96493e-05
2.89431e-05
-4.07416e-05
2.21253e-05
6.69438e-05
2.47834e-05
7.34118e-05
2.80784e-05
6.978e-05
3.13006e-05
6.69474e-05
3.45152e-05
6.4046e-05
3.76633e-05
6.0682e-05
4.06742e-05
5.6754e-05
4.33365e-05
5.2107e-05
4.66567e-05
4.52268e-05
4.03726e-06
-5.53035e-05
8.01409e-06
-5.69961e-05
1.19852e-05
-5.72453e-05
1.59162e-05
-5.84904e-05
1.97739e-05
-6.02262e-05
2.35197e-05
-6.24321e-05
2.70997e-05
-6.51307e-05
3.04406e-05
-6.83411e-05
3.34467e-05
-7.20715e-05
3.59918e-05
-7.63413e-05
3.79432e-05
-8.09827e-05
3.92029e-05
-8.614e-05
3.95411e-05
-9.99874e-05
2.25821e-05
-2.37826e-05
1.9698e-05
6.98276e-05
2.25283e-05
7.05819e-05
2.54953e-05
6.68118e-05
2.83466e-05
6.40956e-05
3.10942e-05
6.12981e-05
3.36636e-05
5.8113e-05
3.59519e-05
5.44656e-05
3.77698e-05
5.02887e-05
4.55842e-05
3.88413e-05
3.61963e-06
-5.89231e-05
7.15153e-06
-6.0528e-05
1.06775e-05
-6.07713e-05
1.41482e-05
-6.1961e-05
1.75269e-05
-6.36049e-05
2.0774e-05
-6.56792e-05
2.38381e-05
-6.81949e-05
2.66539e-05
-7.11569e-05
2.91412e-05
-7.45587e-05
3.12009e-05
-7.8401e-05
3.27393e-05
-8.2521e-05
3.36995e-05
-8.71003e-05
3.38898e-05
-0.000100178
1.58125e-05
-5.70462e-06
1.66466e-05
6.89932e-05
1.9971e-05
6.72572e-05
2.28791e-05
6.39023e-05
2.54873e-05
6.14879e-05
2.78591e-05
5.8927e-05
2.996e-05
5.60123e-05
3.1718e-05
5.27067e-05
3.30132e-05
4.89934e-05
4.49152e-05
3.36822e-05
3.21717e-06
-6.21403e-05
6.32784e-06
-6.36387e-05
9.43387e-06
-6.38773e-05
1.24757e-05
-6.50029e-05
1.54163e-05
-6.65455e-05
1.82171e-05
-6.848e-05
2.08315e-05
-7.08093e-05
2.32031e-05
-7.35285e-05
2.52665e-05
-7.66221e-05
2.69452e-05
-8.00798e-05
2.81746e-05
-8.37504e-05
2.89218e-05
-8.78474e-05
2.89986e-05
-0.000100254
1.07125e-05
1.25818e-05
1.40069e-05
6.56977e-05
1.76624e-05
6.3602e-05
2.05028e-05
6.10618e-05
2.28734e-05
5.91182e-05
2.49036e-05
5.68968e-05
2.66108e-05
5.43047e-05
2.79653e-05
5.13515e-05
2.89031e-05
4.80557e-05
4.44819e-05
2.93372e-05
2.83373e-06
-6.4974e-05
5.54932e-06
-6.63543e-05
8.2625e-06
-6.65905e-05
1.09076e-05
-6.76481e-05
1.34492e-05
-6.9087e-05
1.58515e-05
-7.08823e-05
1.8073e-05
-7.30309e-05
2.00664e-05
-7.55219e-05
2.17792e-05
-7.83348e-05
2.31527e-05
-8.14533e-05
2.41427e-05
-8.47404e-05
2.47284e-05
-8.84331e-05
2.46908e-05
-0.000100217
9.02241e-06
2.82502e-05
1.26425e-05
6.20765e-05
1.6053e-05
6.01916e-05
1.85875e-05
5.85276e-05
2.06183e-05
5.70879e-05
2.22822e-05
5.52325e-05
2.36225e-05
5.29642e-05
2.4638e-05
5.03354e-05
2.53021e-05
4.73917e-05
4.42105e-05
2.55737e-05
2.47137e-06
-6.74454e-05
4.81847e-06
-6.87014e-05
7.1661e-06
-6.89381e-05
9.44563e-06
-6.99276e-05
1.16242e-05
-7.12656e-05
1.36699e-05
-7.29279e-05
1.55465e-05
-7.49076e-05
1.72148e-05
-7.71902e-05
1.86333e-05
-7.97533e-05
1.97576e-05
-8.25776e-05
2.05575e-05
-8.55403e-05
2.10198e-05
-8.88954e-05
2.08911e-05
-0.000100088
9.97522e-06
3.91661e-05
1.25972e-05
5.94533e-05
1.5197e-05
5.75918e-05
1.71753e-05
5.65491e-05
1.87455e-05
5.55173e-05
1.99943e-05
5.39835e-05
2.0964e-05
5.19949e-05
2.16673e-05
4.96324e-05
2.20971e-05
4.69623e-05
4.40729e-05
2.22351e-05
2.13084e-06
-6.95762e-05
4.1353e-06
-7.07059e-05
6.14362e-06
-7.09465e-05
8.08694e-06
-7.1871e-05
9.93507e-06
-7.31137e-05
1.16603e-05
-7.46532e-05
1.32317e-05
-7.64789e-05
1.46168e-05
-7.85753e-05
1.57835e-05
-8.09199e-05
1.66984e-05
-8.34926e-05
1.73445e-05
-8.61863e-05
1.7713e-05
-8.9264e-05
1.75123e-05
-9.9887e-05
1.12743e-05
4.54041e-05
1.30299e-05
5.76963e-05
1.47991e-05
5.58225e-05
1.61565e-05
5.51915e-05
1.72004e-05
5.44729e-05
1.79927e-05
5.31909e-05
1.85764e-05
5.14115e-05
1.89738e-05
4.92359e-05
1.91863e-05
4.67506e-05
4.40564e-05
1.92029e-05
1.81208e-06
-7.13883e-05
3.49838e-06
-7.23922e-05
5.19198e-06
-7.264e-05
6.8264e-06
-7.35054e-05
8.37338e-06
-7.46607e-05
9.80933e-06
-7.60892e-05
1.1108e-05
-7.77775e-05
1.22428e-05
-7.97101e-05
1.31881e-05
-8.18652e-05
1.39172e-05
-8.42217e-05
1.44299e-05
-8.6699e-05
1.47181e-05
-8.95522e-05
1.44417e-05
-9.96106e-05
1.20606e-05
4.77847e-05
1.34884e-05
5.62676e-05
1.46616e-05
5.46499e-05
1.54286e-05
5.4425e-05
1.59078e-05
5.39938e-05
1.6204e-05
5.28949e-05
1.63802e-05
5.12358e-05
1.64691e-05
4.91471e-05
1.64727e-05
4.67475e-05
4.41523e-05
1.6377e-05
1.51278e-06
-7.29011e-05
2.90423e-06
-7.37836e-05
4.306e-06
-7.40418e-05
5.65484e-06
-7.48542e-05
6.92564e-06
-7.59315e-05
8.09782e-06
-7.72613e-05
9.14959e-06
-7.88293e-05
1.00602e-05
-8.06207e-05
1.08085e-05
-8.26136e-05
1.13727e-05
-8.47859e-05
1.17647e-05
-8.7091e-05
1.19426e-05
-8.97302e-05
1.18254e-05
-9.94929e-05
1.27839e-05
4.68258e-05
1.41527e-05
5.48992e-05
1.48374e-05
5.39658e-05
1.49678e-05
5.42947e-05
1.48034e-05
5.41586e-05
1.45396e-05
5.31591e-05
1.4276e-05
5.14997e-05
1.40513e-05
4.93719e-05
1.38567e-05
4.69424e-05
4.43451e-05
1.36641e-05
1.23506e-06
-7.41361e-05
2.34942e-06
-7.48979e-05
3.47862e-06
-7.5171e-05
4.56024e-06
-7.59359e-05
5.57494e-06
-7.69462e-05
6.5042e-06
-7.81905e-05
7.3295e-06
-7.96546e-05
8.0335e-06
-8.13246e-05
8.59876e-06
-8.31789e-05
9.02033e-06
-8.52076e-05
9.33572e-06
-8.74064e-05
9.27104e-06
-8.96656e-05
1.08349e-05
-0.000101057
1.40629e-05
4.35983e-05
1.55328e-05
5.34298e-05
1.5552e-05
5.39464e-05
1.47933e-05
5.50535e-05
1.38039e-05
5.51481e-05
1.2873e-05
5.40903e-05
1.21324e-05
5.22404e-05
1.16e-05
4.99043e-05
1.12338e-05
4.73083e-05
4.46031e-05
1.09759e-05
9.90086e-07
-7.51262e-05
1.83432e-06
-7.57422e-05
2.71087e-06
-7.60475e-05
3.54876e-06
-7.67738e-05
4.33374e-06
-7.77311e-05
5.04709e-06
-7.89038e-05
5.67084e-06
-8.02783e-05
6.18397e-06
-8.18378e-05
6.5556e-06
-8.35505e-05
6.76486e-06
-8.54169e-05
6.93383e-06
-8.75753e-05
6.22929e-06
-8.89612e-05
8.81856e-06
-0.000103646
1.63741e-05
3.60436e-05
1.8244e-05
5.15602e-05
1.69963e-05
5.51941e-05
1.48526e-05
5.71974e-05
1.27473e-05
5.72534e-05
1.10244e-05
5.58132e-05
9.7897e-06
5.3475e-05
8.98543e-06
5.07088e-05
8.50239e-06
4.77912e-05
4.48721e-05
8.23335e-06
7.44783e-07
-7.5871e-05
1.36489e-06
-7.63623e-05
2.03607e-06
-7.67187e-05
2.66755e-06
-7.74052e-05
3.25559e-06
-7.83191e-05
3.78941e-06
-7.94376e-05
4.25495e-06
-8.07438e-05
4.6272e-06
-8.22101e-05
4.86434e-06
-8.37877e-05
4.80623e-06
-8.53588e-05
4.32538e-06
-8.70944e-05
1.45906e-06
-8.60949e-05
-3.4318e-06
-9.87548e-05
1.9829e-05
1.27826e-05
2.31005e-05
4.8289e-05
1.93454e-05
5.89488e-05
1.49761e-05
6.1567e-05
1.13454e-05
6.08844e-05
8.72198e-06
5.84365e-05
7.02956e-06
5.51672e-05
6.04811e-06
5.16902e-05
5.55267e-06
4.82866e-05
4.50612e-05
5.36372e-06
5.58311e-07
-7.64293e-05
9.97327e-07
-7.68014e-05
1.46632e-06
-7.71876e-05
1.92089e-06
-7.78597e-05
2.34259e-06
-7.87408e-05
2.72196e-06
-7.9817e-05
3.04667e-06
-8.10685e-05
3.30038e-06
-8.24637e-05
3.50401e-06
-8.39913e-05
3.53904e-06
-8.53939e-05
3.13004e-06
-8.66854e-05
6.47306e-06
-8.94379e-05
-1.29991e-06
-9.0982e-05
3.03629e-05
-1.88802e-05
3.27025e-05
4.59498e-05
2.24668e-05
6.9185e-05
1.4568e-05
6.9466e-05
8.98509e-06
6.64674e-05
5.51319e-06
6.19084e-05
3.56713e-06
5.71132e-05
2.62489e-06
5.26323e-05
2.29198e-06
4.86196e-05
4.50367e-05
2.31654e-06
2.7351e-07
-7.67028e-05
4.95418e-07
-7.70233e-05
7.39246e-07
-7.74314e-05
9.61049e-07
-7.80815e-05
1.15492e-06
-7.89346e-05
1.30947e-06
-7.99715e-05
1.40844e-06
-8.11676e-05
1.45954e-06
-8.25148e-05
1.44228e-06
-8.39741e-05
2.40478e-06
-8.63565e-05
4.22168e-06
-8.85022e-05
2.65464e-05
-0.000111763
3.81028e-05
-0.000102539
6.55513e-05
-4.63288e-05
4.62337e-05
6.52677e-05
2.65598e-05
8.88594e-05
1.24522e-05
8.35739e-05
4.70288e-06
7.42165e-05
8.92012e-07
6.57192e-05
-8.40335e-07
5.88453e-05
-1.41917e-06
5.32112e-05
-1.33617e-06
4.85368e-05
4.46221e-05
-9.21466e-07
-5.29644e-07
-7.61732e-05
-1.23304e-06
-7.63201e-05
-1.8373e-06
-7.68271e-05
-2.50087e-06
-7.74179e-05
-3.1907e-06
-7.82448e-05
-3.89268e-06
-7.92696e-05
-4.49532e-06
-8.0565e-05
-4.75579e-06
-8.22542e-05
-5.17529e-06
-8.35546e-05
-8.59746e-07
-9.06723e-05
1.55366e-05
-0.000104899
2.9476e-05
-0.000125702
8.21876e-05
-0.00015525
6.50631e-05
-2.92042e-05
6.47857e-05
6.55454e-05
3.00922e-05
0.000123553
5.84023e-06
0.000107826
-2.98105e-06
8.30378e-05
-6.03189e-06
6.87699e-05
-6.62527e-06
5.94386e-05
-6.17828e-06
5.27645e-05
-5.31794e-06
4.76767e-05
4.36161e-05
-4.31179e-06
-3.29737e-06
-7.28762e-05
-6.62732e-06
-7.2989e-05
-1.00455e-05
-7.34119e-05
-1.34957e-05
-7.39689e-05
-1.69565e-05
-7.47841e-05
-2.02736e-05
-7.59514e-05
-2.31365e-05
-7.77013e-05
-2.51617e-05
-8.02282e-05
-2.39283e-05
-8.47882e-05
-1.80245e-05
-9.65754e-05
-5.19095e-06
-0.000117732
5.72202e-06
-0.000136615
9.08657e-06
-0.000158614
6.29214e-06
-2.64098e-05
-1.74343e-05
8.92719e-05
-2.26807e-05
0.0001288
-1.93374e-05
0.000104483
-1.751e-05
8.12103e-05
-1.55674e-05
6.68275e-05
-1.34659e-05
5.73375e-05
-1.13944e-05
5.06931e-05
-9.46654e-06
4.57489e-05
4.18717e-05
-7.72202e-06
-3.49752e-06
-6.93805e-05
-6.73382e-06
-6.97499e-05
-1.01682e-05
-6.99773e-05
-1.37097e-05
-7.04283e-05
-1.74224e-05
-7.10734e-05
-2.13499e-05
-7.20264e-05
-2.56408e-05
-7.34118e-05
-3.03861e-05
-7.54831e-05
-3.57795e-05
-7.93959e-05
-4.7197e-05
-8.51582e-05
-7.16051e-05
-9.3324e-05
-9.61796e-05
-0.000112041
-0.000150632
-0.000104162
-0.000152964
-2.40771e-05
-0.000117813
5.41207e-05
-7.44516e-05
8.54387e-05
-4.76558e-05
7.76869e-05
-3.39052e-05
6.74597e-05
-2.58342e-05
5.87568e-05
-2.04673e-05
5.19709e-05
-1.65302e-05
4.67561e-05
-1.34501e-05
4.26686e-05
3.93667e-05
-1.09452e-05
-3.54061e-06
-6.58425e-05
-7.08207e-06
-6.62095e-05
-1.07063e-05
-6.63529e-05
-1.45137e-05
-6.66201e-05
-1.85671e-05
-6.70196e-05
-2.2999e-05
-6.75944e-05
-2.8014e-05
-6.83962e-05
-3.39092e-05
-6.9588e-05
-4.20044e-05
-7.13003e-05
-5.45997e-05
-7.25627e-05
-7.22223e-05
-7.57014e-05
-0.000104677
-7.95855e-05
-0.000145992
-6.28474e-05
-0.000149957
-2.01122e-05
-0.00012372
2.78838e-05
-8.64838e-05
4.8203e-05
-6.04562e-05
5.16595e-05
-4.39306e-05
5.09343e-05
-3.32464e-05
4.80727e-05
-2.60022e-05
4.47266e-05
-2.07924e-05
4.15461e-05
-1.68474e-05
3.87233e-05
3.62589e-05
-1.37401e-05
-3.58287e-06
-6.22599e-05
-7.22986e-06
-6.25631e-05
-1.09684e-05
-6.26155e-05
-1.49127e-05
-6.26757e-05
-1.91533e-05
-6.27793e-05
-2.38375e-05
-6.2911e-05
-2.91668e-05
-6.30665e-05
-3.54969e-05
-6.32585e-05
-4.35262e-05
-6.32706e-05
-5.3555e-05
-6.25339e-05
-6.74419e-05
-6.18143e-05
-8.94734e-05
-5.75539e-05
-0.00011057
-4.17507e-05
-0.000114756
-1.59259e-05
-9.74729e-05
1.06009e-05
-7.66094e-05
2.73397e-05
-5.97134e-05
3.47638e-05
-4.65425e-05
3.77635e-05
-3.66631e-05
3.81931e-05
-2.92901e-05
3.73533e-05
-2.37028e-05
3.59584e-05
-1.93678e-05
3.43878e-05
3.2816e-05
-1.59253e-05
-3.59751e-06
-5.86626e-05
-7.2506e-06
-5.89107e-05
-1.1036e-05
-5.88306e-05
-1.50099e-05
-5.87013e-05
-1.92798e-05
-5.85096e-05
-2.39655e-05
-5.82251e-05
-2.92449e-05
-5.77876e-05
-3.53964e-05
-5.7107e-05
-4.27646e-05
-5.59022e-05
-5.14286e-05
-5.38702e-05
-6.2449e-05
-5.07938e-05
-7.5733e-05
-4.42695e-05
-8.58394e-05
-3.16444e-05
-8.73237e-05
-1.44415e-05
-7.92104e-05
2.48785e-06
-6.71263e-05
1.52557e-05
-5.56101e-05
2.32476e-05
-4.55966e-05
2.775e-05
-3.73263e-05
2.99227e-05
-3.06463e-05
3.06729e-05
-2.52825e-05
3.05942e-05
-2.09563e-05
3.00612e-05
2.9296e-05
-1.74365e-05
-3.55419e-06
-5.51078e-05
-7.15914e-06
-5.53053e-05
-1.08891e-05
-5.51009e-05
-1.47906e-05
-5.47992e-05
-1.89503e-05
-5.43499e-05
-2.34678e-05
-5.37072e-05
-2.84614e-05
-5.27942e-05
-3.40854e-05
-5.14823e-05
-4.04419e-05
-4.95459e-05
-4.75888e-05
-4.67235e-05
-5.58038e-05
-4.25788e-05
-6.41389e-05
-3.59343e-05
-6.97539e-05
-2.60296e-05
-7.0281e-05
-1.39143e-05
-6.59324e-05
-1.86038e-06
-5.86973e-05
8.02062e-06
-5.07403e-05
1.52905e-05
-4.31585e-05
2.01682e-05
-3.64266e-05
2.31909e-05
-3.0655e-05
2.49011e-05
-2.57901e-05
2.57291e-05
-2.17156e-05
2.59866e-05
2.58873e-05
-1.83069e-05
-3.44887e-06
-5.16588e-05
-6.96214e-06
-5.1792e-05
-1.05629e-05
-5.15004e-05
-1.43134e-05
-5.10488e-05
-1.82718e-05
-5.0391e-05
-2.25032e-05
-4.94761e-05
-2.70742e-05
-4.82228e-05
-3.20481e-05
-4.65081e-05
-3.74315e-05
-4.41625e-05
-4.31884e-05
-4.09664e-05
-4.91833e-05
-3.6584e-05
-5.46076e-05
-3.05102e-05
-5.80367e-05
-2.26005e-05
-5.84113e-05
-1.35395e-05
-5.57904e-05
-4.48109e-06
-5.11925e-05
3.42283e-06
-4.56596e-05
9.75777e-06
-3.99791e-05
1.44879e-05
-3.46095e-05
1.78215e-05
-2.97618e-05
2.00534e-05
-2.54977e-05
2.14651e-05
-2.18005e-05
2.22896e-05
2.27074e-05
-1.86203e-05
-3.29651e-06
-4.83618e-05
-6.65922e-06
-4.84291e-05
-1.00826e-05
-4.80763e-05
-1.36226e-05
-4.75084e-05
-1.73154e-05
-4.66975e-05
-2.11969e-05
-4.55946e-05
-2.52939e-05
-4.41254e-05
-2.96137e-05
-4.21885e-05
-3.41167e-05
-3.96598e-05
-3.8702e-05
-3.63809e-05
-4.31331e-05
-3.21531e-05
-4.68553e-05
-2.67879e-05
-4.91222e-05
-2.03335e-05
-4.94357e-05
-1.3226e-05
-4.77977e-05
-6.11909e-06
-4.47384e-05
3.6377e-07
-4.08108e-05
5.8304e-06
-3.65426e-05
1.022e-05
-3.22984e-05
1.35775e-05
-2.82945e-05
1.60498e-05
-2.46383e-05
1.78092e-05
-2.13666e-05
1.90183e-05
1.98183e-05
-1.84775e-05
-3.11341e-06
-4.5248e-05
-6.27534e-06
-4.52671e-05
-9.48627e-06
-4.48651e-05
-1.2777e-05
-4.42171e-05
-1.61693e-05
-4.33051e-05
-1.96768e-05
-4.20865e-05
-2.3301e-05
-4.05009e-05
-2.70185e-05
-3.84714e-05
-3.0767e-05
-3.59113e-05
-3.44261e-05
-3.27215e-05
-3.7777e-05
-2.88025e-05
-4.04603e-05
-2.41048e-05
-4.20697e-05
-1.8724e-05
-4.23497e-05
-1.2946e-05
-4.12976e-05
-7.17116e-06
-3.91888e-05
-1.74494e-06
-3.63477e-05
2.98949e-06
-3.31165e-05
6.98897e-06
-2.97678e-05
1.02289e-05
-2.64898e-05
1.27721e-05
-2.33978e-05
1.47174e-05
-2.0552e-05
1.61727e-05
1.72432e-05
-1.7977e-05
-2.90736e-06
-4.23403e-05
-5.84162e-06
-4.23321e-05
-8.81452e-06
-4.18916e-05
-1.18355e-05
-4.11958e-05
-1.49139e-05
-4.02266e-05
-1.80497e-05
-3.89503e-05
-2.12289e-05
-3.7322e-05
-2.44132e-05
-3.5287e-05
-2.75346e-05
-3.27896e-05
-3.04806e-05
-2.97755e-05
-3.30789e-05
-2.62047e-05
-3.50985e-05
-2.20852e-05
-3.63089e-05
-1.75136e-05
-3.65694e-05
-1.26857e-05
-3.58855e-05
-7.85519e-06
-3.4375e-05
-3.2557e-06
-3.22932e-05
9.07607e-07
-2.98269e-05
4.52258e-06
-2.71806e-05
7.58262e-06
-2.45081e-05
1.00996e-05
-2.19155e-05
1.21247e-05
-1.94693e-05
1.37263e-05
1.498e-05
-1.72062e-05
-2.68273e-06
-3.96575e-05
-5.37917e-06
-3.96352e-05
-8.09976e-06
-3.91705e-05
-1.08434e-05
-3.84521e-05
-1.36098e-05
-3.74598e-05
-1.63907e-05
-3.61694e-05
-1.91633e-05
-3.45495e-05
-2.18856e-05
-3.25644e-05
-2.44932e-05
-3.01821e-05
-2.68914e-05
-2.73776e-05
-2.89526e-05
-2.41438e-05
-3.05272e-05
-2.05108e-05
-3.1478e-05
-1.65631e-05
-3.17244e-05
-1.24397e-05
-3.12699e-05
-8.31026e-06
-3.01837e-05
-4.34232e-06
-2.86328e-05
-6.43667e-07
-2.6728e-05
2.61737e-06
-2.46289e-05
5.48322e-06
-2.24532e-05
7.92344e-06
-2.02909e-05
9.96217e-06
-1.82055e-05
1.16407e-05
1.30119e-05
-1.62375e-05
-2.44556e-06
-3.72114e-05
-4.90023e-06
-3.71798e-05
-7.36416e-06
-3.67066e-05
-9.83194e-06
-3.59839e-05
-1.22977e-05
-3.49938e-05
-1.47475e-05
-3.37196e-05
-1.71554e-05
-3.21413e-05
-1.94812e-05
-3.02384e-05
-2.16686e-05
-2.79951e-05
-2.36418e-05
-2.54048e-05
-2.53085e-05
-2.24772e-05
-2.65706e-05
-1.92491e-05
-2.73432e-05
-1.57911e-05
-2.75786e-05
-1.22051e-05
-2.72791e-05
-8.61054e-06
-2.64963e-05
-5.12566e-06
-2.52994e-05
-1.84116e-06
-2.38292e-05
1.14649e-06
-2.21605e-05
3.81389e-06
-2.03898e-05
6.15226e-06
-1.85927e-05
8.16479e-06
-1.68258e-05
9.8737e-06
1.13148e-05
-1.51286e-05
-2.20302e-06
-3.5008e-05
-4.41518e-06
-3.49673e-05
-6.62411e-06
-3.44975e-05
-8.82402e-06
-3.37836e-05
-1.1005e-05
-3.28128e-05
-1.31501e-05
-3.15744e-05
-1.52336e-05
-3.00575e-05
-1.72198e-05
-2.82524e-05
-1.90611e-05
-2.61543e-05
-2.06987e-05
-2.37673e-05
-2.20666e-05
-2.11094e-05
-2.30989e-05
-1.82174e-05
-2.37413e-05
-1.51495e-05
-2.39643e-05
-1.19829e-05
-2.37702e-05
-8.80528e-06
-2.31931e-05
-5.70337e-06
-2.22825e-05
-2.75243e-06
-2.11329e-05
-3.87249e-09
-1.97983e-05
2.47874e-06
-1.83563e-05
4.71e-06
-1.68665e-05
6.67498e-06
-1.53771e-05
8.38447e-06
9.86206e-06
-1.3924e-05
-1.96168e-06
-3.3046e-05
-3.93311e-06
-3.2996e-05
-5.89347e-06
-3.25368e-05
-7.83675e-06
-3.18404e-05
-9.75026e-06
-3.08993e-05
-1.16166e-05
-2.97079e-05
-1.3412e-05
-2.8262e-05
-1.51054e-05
-2.65593e-05
-1.66581e-05
-2.4602e-05
-1.80252e-05
-2.24004e-05
-1.91592e-05
-1.99757e-05
-2.00149e-05
-1.73623e-05
-2.05566e-05
-1.46084e-05
-2.07658e-05
-1.17742e-05
-2.06451e-05
-8.92644e-06
-2.02179e-05
-6.13106e-06
-1.95235e-05
-3.44747e-06
-1.86121e-05
-9.15755e-07
-1.75464e-05
1.41286e-06
-1.63731e-05
3.5368e-06
-1.51416e-05
5.44373e-06
-1.38923e-05
7.1356e-06
8.62702e-06
-1.26568e-05
-1.72666e-06
-3.13195e-05
-3.46176e-06
-3.12609e-05
-5.18265e-06
-3.08158e-05
-6.88153e-06
-3.01415e-05
-8.54492e-06
-2.92355e-05
-1.01565e-05
-2.80964e-05
-1.16947e-05
-2.67241e-05
-1.31333e-05
-2.5121e-05
-1.44413e-05
-2.32941e-05
-1.55848e-05
-2.12569e-05
-1.65294e-05
-1.90313e-05
-1.72435e-05
-1.66486e-05
-1.77031e-05
-1.4149e-05
-1.78966e-05
-1.1581e-05
-1.78265e-05
-8.99673e-06
-1.75098e-05
-6.44813e-06
-1.69753e-05
-3.98224e-06
-1.62552e-05
-1.63589e-06
-1.54036e-05
5.61494e-07
-1.44499e-05
2.58343e-06
-1.34355e-05
4.42979e-06
-1.23937e-05
6.09429e-06
7.58498e-06
-1.13512e-05
-1.50022e-06
-2.98194e-05
-3.00637e-06
-2.97546e-05
-4.49764e-06
-2.93244e-05
-5.96457e-06
-2.86744e-05
-7.39439e-06
-2.78056e-05
-8.77208e-06
-2.67192e-05
-1.00787e-05
-2.54179e-05
-1.12925e-05
-2.39073e-05
-1.23893e-05
-2.21972e-05
-1.33435e-05
-2.03028e-05
-1.41297e-05
-1.82453e-05
-1.47257e-05
-1.60527e-05
-1.51151e-05
-1.37595e-05
-1.52907e-05
-1.14054e-05
-1.52547e-05
-9.03265e-06
-1.50197e-05
-6.68309e-06
-1.46064e-05
-4.3954e-06
-1.40385e-05
-2.20338e-06
-1.33637e-05
-1.12895e-07
-1.25886e-05
1.80879e-06
-1.17576e-05
3.59927e-06
-1.08955e-05
5.23266e-06
6.714e-06
-1.00241e-05
-1.28288e-06
-2.85364e-05
-2.56902e-06
-2.84682e-05
-3.84049e-06
-2.80527e-05
-5.08763e-06
-2.74272e-05
-6.29873e-06
-2.65947e-05
-7.46025e-06
-2.55581e-05
-8.55623e-06
-2.4322e-05
-9.56911e-06
-2.28942e-05
-1.04802e-05
-2.12861e-05
-1.12699e-05
-1.95132e-05
-1.19196e-05
-1.75956e-05
-1.24135e-05
-1.55586e-05
-1.27406e-05
-1.34322e-05
-1.2896e-05
-1.12497e-05
-1.28822e-05
-9.04622e-06
-1.27085e-05
-6.85632e-06
-1.23911e-05
-4.71235e-06
-1.19516e-05
-2.6424e-06
-1.1401e-05
-6.63094e-07
-1.0784e-05
1.19214e-06
-1.01114e-05
2.92707e-06
-9.40627e-06
4.52797e-06
5.99522e-06
-8.68706e-06
-1.07423e-06
-2.74621e-05
-2.14914e-06
-2.73931e-05
-3.21034e-06
-2.69913e-05
-4.24881e-06
-2.6389e-05
-5.25398e-06
-2.55898e-05
-6.21424e-06
-2.45979e-05
-7.11671e-06
-2.34194e-05
-7.94751e-06
-2.20634e-05
-8.69207e-06
-2.05417e-05
-9.33561e-06
-1.88698e-05
-9.86446e-06
-1.70666e-05
-1.02675e-05
-1.51553e-05
-1.05371e-05
-1.31622e-05
-1.06704e-05
-1.11161e-05
-1.06694e-05
-9.04677e-06
-1.05414e-05
-6.98381e-06
-1.02982e-05
-4.95496e-06
-9.95533e-06
-2.98483e-06