/*--------------------------------*- C++ -*----------------------------------*\
| =========                 |                                                 |
| \\      /  F ield         | OpenFOAM: The Open Source CFD Toolbox           |
|  \\    /   O peration     | Version:  2206                                  |
|   \\  /    A nd           | Website:  www.openfoam.com                      |
|    \\/     M anipulation  |                                                 |
\*---------------------------------------------------------------------------*/
FoamFile
{
    version     2.0;
    format      ascii;
    arch        "LSB;label=32;scalar=64";
    class       volVectorField;
    location    "0.05";
    object      U;
}
// * * * * * * * * * * * * * * * * * * * * * * * * * * * * * * * * * * * * * //

dimensions      [0 1 -1 0 0 0 0];

internalField   nonuniform List<vector> 
2268
(
(0.0182568 -0.00863041 0)
(0.0557317 -0.00915093 0)
(0.0945422 -0.00922895 0)
(0.134365 -0.00961653 0)
(0.17619 -0.0102033 0)
(0.220951 -0.0110144 0)
(0.269734 -0.0121181 0)
(0.323667 -0.013625 0)
(0.38697 -0.0157462 0)
(0.452161 -0.018649 0)
(0.556289 -0.0236801 0)
(0.638942 -0.0293428 0)
(0.723804 -0.0425733 0)
(0.884208 -0.0544418 0)
(1.11207 -0.0437817 0)
(1.3875 -0.00881218 0)
(1.35197 0.0164724 0)
(1.08673 0.0483511 0)
(0.841187 0.0647943 0)
(0.607921 0.05174 0)
(0.398261 0.0420443 0)
(0.227979 0.0375247 0)
(0.0758783 0.0357854 0)
(0.0182202 -0.0258203 0)
(0.0556363 -0.0273708 0)
(0.0943681 -0.0276093 0)
(0.13408 -0.0287663 0)
(0.175758 -0.0305101 0)
(0.220312 -0.0329154 0)
(0.268802 -0.0361843 0)
(0.32229 -0.0406433 0)
(0.384964 -0.0468717 0)
(0.44866 -0.0556063 0)
(0.552956 -0.0700675 0)
(0.626745 -0.0849657 0)
(0.70274 -0.119319 0)
(0.897844 -0.147592 0)
(1.22188 -0.124968 0)
(1.5337 -0.0486559 0)
(1.59632 0.0230212 0)
(1.41369 0.13043 0)
(1.06835 0.197594 0)
(0.700735 0.180734 0)
(0.438089 0.140758 0)
(0.250798 0.117408 0)
(0.0841495 0.110321 0)
(0.0181066 -0.0429895 0)
(0.0552853 -0.0455408 0)
(0.0937425 -0.0459364 0)
(0.133131 -0.0478463 0)
(0.174419 -0.0507219 0)
(0.218468 -0.0546798 0)
(0.266282 -0.060049 0)
(0.318812 -0.0673561 0)
(0.380068 -0.0774595 0)
(0.441348 -0.0918357 0)
(0.544056 -0.113957 0)
(0.606269 -0.138773 0)
(0.680579 -0.193616 0)
(0.890308 -0.23786 0)
(1.18592 -0.235461 0)
(1.35653 -0.151485 0)
(1.35876 0.0362701 0)
(1.15195 0.25914 0)
(0.818693 0.363259 0)
(0.549332 0.311925 0)
(0.382038 0.234715 0)
(0.230867 0.195377 0)
(0.0792867 0.186198 0)
(0.0179426 -0.0600407 0)
(0.054765 -0.063554 0)
(0.092813 -0.0641017 0)
(0.131731 -0.0667311 0)
(0.172453 -0.0706864 0)
(0.215777 -0.0761171 0)
(0.262621 -0.0834639 0)
(0.313799 -0.0934189 0)
(0.373019 -0.107054 0)
(0.431245 -0.12645 0)
(0.530347 -0.154804 0)
(0.579281 -0.189741 0)
(0.639519 -0.269927 0)
(0.839334 -0.321256 0)
(1.05689 -0.281644 0)
(1.12385 -0.173265 0)
(1.00327 0.0914894 0)
(0.743471 0.397509 0)
(0.529014 0.488608 0)
(0.428463 0.39574 0)
(0.334768 0.301714 0)
(0.215184 0.261871 0)
(0.0766189 0.258354 0)
(0.0177303 -0.0769254 0)
(0.0540822 -0.0813511 0)
(0.0915921 -0.0820406 0)
(0.129902 -0.0853496 0)
(0.169894 -0.0903174 0)
(0.21229 -0.0971163 0)
(0.257905 -0.106277 0)
(0.30739 -0.118617 0)
(0.364071 -0.135348 0)
(0.418701 -0.158981 0)
(0.512691 -0.192338 0)
(0.547048 -0.235195 0)
(0.593589 -0.332787 0)
(0.777265 -0.383768 0)
(0.940057 -0.303251 0)
(0.921797 -0.133311 0)
(0.657294 0.201577 0)
(0.414638 0.492364 0)
(0.360836 0.521976 0)
(0.357609 0.424017 0)
(0.301648 0.346429 0)
(0.206321 0.318719 0)
(0.0770589 0.328 0)
(0.0174718 -0.0935459 0)
(0.0532463 -0.0988195 0)
(0.0900986 -0.0996384 0)
(0.127673 -0.103575 0)
(0.166789 -0.109469 0)
(0.20808 -0.117502 0)
(0.252245 -0.12827 0)
(0.299769 -0.142675 0)
(0.353533 -0.161979 0)
(0.404209 -0.188973 0)
(0.492167 -0.225808 0)
(0.51156 -0.27426 0)
(0.549281 -0.382182 0)
(0.71636 -0.430986 0)
(0.839237 -0.304561 0)
(0.72522 -0.0434257 0)
(0.377977 0.315109 0)
(0.255307 0.520029 0)
(0.298359 0.507732 0)
(0.316818 0.43177 0)
(0.280485 0.37887 0)
(0.205507 0.36767 0)
(0.0817567 0.398935 0)
(0.0171748 -0.109912 0)
(0.0522772 -0.115964 0)
(0.0883663 -0.116895 0)
(0.125101 -0.121405 0)
(0.163222 -0.128136 0)
(0.203275 -0.137272 0)
(0.245833 -0.149449 0)
(0.291229 -0.16562 0)
(0.34186 -0.187008 0)
(0.388537 -0.216603 0)
(0.470036 -0.255163 0)
(0.474886 -0.307197 0)
(0.506813 -0.42164 0)
(0.657709 -0.467111 0)
(0.743003 -0.276497 0)
(0.535224 0.0776382 0)
(0.221065 0.396447 0)
(0.214968 0.508799 0)
(0.272155 0.485708 0)
(0.291136 0.434491 0)
(0.26925 0.402229 0)
(0.215677 0.407591 0)
(0.095473 0.470244 0)
(0.0168489 -0.126258 0)
(0.0511883 -0.133047 0)
(0.0864135 -0.134086 0)
(0.122226 -0.13913 0)
(0.159269 -0.146633 0)
(0.197994 -0.156771 0)
(0.238854 -0.170195 0)
(0.282073 -0.187879 0)
(0.329519 -0.210981 0)
(0.372663 -0.24258 0)
(0.447923 -0.281601 0)
(0.43879 -0.335338 0)
(0.467153 -0.452935 0)
(0.603005 -0.495811 0)
(0.643148 -0.240196 0)
(0.361282 0.203552 0)
(0.173755 0.437043 0)
(0.212484 0.486122 0)
(0.256261 0.466204 0)
(0.275007 0.433502 0)
(0.266049 0.417157 0)
(0.239073 0.441651 0)
(0.0958791 0.56179 0)
(0.0087025 -0.00447902 0)
(0.0249669 -0.00386593 0)
(0.0378506 -0.00273683 0)
(0.0464353 -0.00167474 0)
(0.0512397 -0.000807697 0)
(0.0530909 -0.000156724 0)
(0.0527574 0.00030802 0)
(0.0509086 0.000629276 0)
(0.0480231 0.000846462 0)
(0.0444328 0.000992591 0)
(0.0403725 0.00108995 0)
(0.0360008 0.00115372 0)
(0.0314247 0.0011951 0)
(0.0267174 0.00122176 0)
(0.0219275 0.00123854 0)
(0.0170863 0.00124878 0)
(0.0122138 0.0012548 0)
(0.00732548 0.00125748 0)
(0.0024349 0.00126006 0)
(0.00922024 -0.01377 0)
(0.0263949 -0.0119411 0)
(0.0397431 -0.00839112 0)
(0.0484119 -0.00509165 0)
(0.0531224 -0.002426 0)
(0.0548181 -0.00044451 0)
(0.0543782 0.00096392 0)
(0.0524321 0.00194206 0)
(0.0494367 0.00260624 0)
(0.0457271 0.00305296 0)
(0.041539 0.00335054 0)
(0.037034 0.00354591 0)
(0.0323221 0.0036726 0)
(0.0274776 0.00375374 0)
(0.0225495 0.00380456 0)
(0.0175697 0.00383534 0)
(0.0125585 0.00385307 0)
(0.0075306 0.00386142 0)
(0.00249637 0.00384026 0)
(0.00999843 -0.023647 0)
(0.0283472 -0.0203279 0)
(0.0420604 -0.0140308 0)
(0.0504735 -0.00835093 0)
(0.0547326 -0.00386478 0)
(0.0559969 -0.00057984 0)
(0.0551725 0.00173281 0)
(0.0529374 0.00333562 0)
(0.0497406 0.00442359 0)
(0.0458968 0.00515386 0)
(0.0416222 0.00563985 0)
(0.0370636 0.00595953 0)
(0.0323204 0.0061667 0)
(0.0274594 0.00629848 0)
(0.0225246 0.0063803 0)
(0.0175449 0.00642949 0)
(0.0125378 0.00645744 0)
(0.00751713 0.0064712 0)
(0.00249174 0.00643913 0)
(0.0113045 -0.0345718 0)
(0.0315528 -0.0292862 0)
(0.0457517 -0.019631 0)
(0.0536541 -0.0113316 0)
(0.0571549 -0.00500054 0)
(0.0577364 -0.000479991 0)
(0.0563738 0.00270084 0)
(0.0537569 0.00487485 0)
(0.050291 0.00634188 0)
(0.046263 0.00732497 0)
(0.0418637 0.00797803 0)
(0.0372207 0.00840664 0)
(0.0324204 0.0086837 0)
(0.0275214 0.00885936 0)
(0.022562 0.00896786 0)
(0.0175665 0.00903241 0)
(0.0125492 0.00906835 0)
(0.00752245 0.0090861 0)
(0.00249333 0.00903997 0)
(0.013279 -0.0467674 0)
(0.0363972 -0.0390127 0)
(0.0510784 -0.0250509 0)
(0.0580397 -0.0138249 0)
(0.0603732 -0.00565998 0)
(0.0600008 9.41491e-06 0)
(0.0579316 0.00394421 0)
(0.0548079 0.006604 0)
(0.0509967 0.00839032 0)
(0.0467341 0.00958462 0)
(0.0421747 0.010376 0)
(0.0374231 0.0108938 0)
(0.0325501 0.0112277 0)
(0.0276028 0.0114387 0)
(0.0226116 0.0115678 0)
(0.017595 0.011643 0)
(0.0125644 0.0116838 0)
(0.0075296 0.0117037 0)
(0.00249545 0.011643 0)
(0.0157411 -0.0600816 0)
(0.0432649 -0.0497289 0)
(0.0583865 -0.0300638 0)
(0.063709 -0.0155522 0)
(0.0643653 -0.00565033 0)
(0.062721 0.0010163 0)
(0.0597681 0.00553604 0)
(0.0560431 0.00856948 0)
(0.0518236 0.0105992 0)
(0.0472843 0.0119519 0)
(0.0425372 0.0128462 0)
(0.0376588 0.0134305 0)
(0.0327007 0.0138058 0)
(0.0276965 0.0140407 0)
(0.0226675 0.0141819 0)
(0.0176264 0.0142621 0)
(0.0125807 0.0143044 0)
(0.00753728 0.0143249 0)
(0.00249776 0.014249 0)
(0.0231118 -0.0830985 0)
(0.0531548 -0.0627681 0)
(0.068126 -0.0343548 0)
(0.0707134 -0.0161465 0)
(0.0690256 -0.00474152 0)
(0.0657923 0.00262023 0)
(0.0618144 0.00753261 0)
(0.0574097 0.0108082 0)
(0.0527351 0.0129924 0)
(0.0478893 0.0144447 0)
(0.0429352 0.0154026 0)
(0.0379169 0.0160261 0)
(0.0328643 0.0164233 0)
(0.0277967 0.016668 0)
(0.0227258 0.0168119 0)
(0.0176583 0.0168911 0)
(0.0125969 0.0169316 0)
(0.00754484 0.0169504 0)
(0.00250003 0.0168582 0)
(0.0682794 -0.117825 0)
(0.0759366 -0.0752485 0)
(0.0815626 -0.03601 0)
(0.0790905 -0.0150101 0)
(0.0741932 -0.00290763 0)
(0.069069 0.00486276 0)
(0.0639829 0.00996549 0)
(0.0588555 0.0133406 0)
(0.0536989 0.0155863 0)
(0.0485286 0.0170762 0)
(0.0433548 0.0180551 0)
(0.0381874 0.0186874 0)
(0.0330338 0.0190847 0)
(0.0278985 0.0193244 0)
(0.0227837 0.0194611 0)
(0.0176889 0.019533 0)
(0.0126118 0.0195672 0)
(0.00755145 0.0195815 0)
(0.00250193 0.0194714 0)
(0.0162723 -0.150432 0)
(0.0492928 -0.158152 0)
(0.0830425 -0.159312 0)
(0.117285 -0.165015 0)
(0.152507 -0.173443 0)
(0.189022 -0.184751 0)
(0.227107 -0.199569 0)
(0.266836 -0.218809 0)
(0.309343 -0.243575 0)
(0.347553 -0.276376 0)
(0.413461 -0.316186 0)
(0.387926 -0.368599 0)
(0.413505 -0.481785 0)
(0.533831 -0.50417 0)
(0.522738 -0.123414 0)
(0.209219 0.335507 0)
(0.178109 0.451819 0)
(0.211682 0.460696 0)
(0.240104 0.446593 0)
(0.262087 0.427041 0)
(0.277082 0.419304 0)
(0.315864 0.442167 0)
(0.366774 0.558914 0)
(0.0153202 -0.182226 0)
(0.0462526 -0.19095 0)
(0.0776951 -0.192249 0)
(0.109456 -0.198672 0)
(0.14184 -0.208056 0)
(0.174988 -0.220509 0)
(0.208967 -0.236604 0)
(0.243627 -0.257117 0)
(0.279542 -0.282994 0)
(0.310387 -0.315855 0)
(0.364256 -0.355807 0)
(0.324418 -0.404649 0)
(0.352593 -0.51018 0)
(0.450384 -0.488995 0)
(0.379399 0.0668702 0)
(0.148257 0.407593 0)
(0.179145 0.442383 0)
(0.203382 0.4333 0)
(0.225845 0.420093 0)
(0.251018 0.40462 0)
(0.279528 0.392357 0)
(0.321548 0.386703 0)
(0.411004 0.382072 0)
(0.0142688 -0.211943 0)
(0.0429223 -0.221269 0)
(0.0718784 -0.222638 0)
(0.101001 -0.229477 0)
(0.130433 -0.239362 0)
(0.160173 -0.252336 0)
(0.190142 -0.268871 0)
(0.220043 -0.289566 0)
(0.250116 -0.315108 0)
(0.274706 -0.346586 0)
(0.31906 -0.383742 0)
(0.27159 -0.427365 0)
(0.302903 -0.52409 0)
(0.381916 -0.442641 0)
(0.243409 0.205781 0)
(0.121614 0.427345 0)
(0.167998 0.42644 0)
(0.189264 0.410093 0)
(0.21063 0.395114 0)
(0.234381 0.377882 0)
(0.260323 0.358118 0)
(0.288848 0.332887 0)
(0.337853 0.293997 0)
(0.013154 -0.239476 0)
(0.0394238 -0.249073 0)
(0.0658151 -0.250467 0)
(0.092251 -0.257487 0)
(0.118734 -0.267523 0)
(0.145166 -0.28056 0)
(0.171372 -0.296956 0)
(0.19698 -0.317138 0)
(0.222049 -0.341547 0)
(0.241607 -0.370862 0)
(0.278536 -0.404476 0)
(0.227851 -0.442862 0)
(0.261925 -0.531913 0)
(0.325941 -0.368111 0)
(0.14833 0.302418 0)
(0.119088 0.419054 0)
(0.156548 0.404723 0)
(0.174384 0.388575 0)
(0.193793 0.373003 0)
(0.214213 0.354536 0)
(0.235043 0.332391 0)
(0.255891 0.304466 0)
(0.279787 0.269142 0)
(0.0120105 -0.264724 0)
(0.0358671 -0.274309 0)
(0.0596975 -0.275696 0)
(0.0834811 -0.282703 0)
(0.107111 -0.292614 0)
(0.130425 -0.305366 0)
(0.153199 -0.321211 0)
(0.175043 -0.340421 0)
(0.195924 -0.363242 0)
(0.211546 -0.390055 0)
(0.242654 -0.420045 0)
(0.191557 -0.453725 0)
(0.227385 -0.53633 0)
(0.279628 -0.261712 0)
(0.100848 0.347974 0)
(0.119143 0.403525 0)
(0.144983 0.385091 0)
(0.159573 0.369703 0)
(0.176568 0.354024 0)
(0.193706 0.335593 0)
(0.210221 0.313845 0)
(0.225536 0.287651 0)
(0.238668 0.256253 0)
(0.0108671 -0.287662 0)
(0.0323408 -0.297008 0)
(0.0536751 -0.298369 0)
(0.0749001 -0.305216 0)
(0.0958274 -0.314803 0)
(0.116263 -0.327032 0)
(0.135962 -0.342063 0)
(0.154552 -0.36005 0)
(0.171966 -0.38109 0)
(0.184529 -0.405364 0)
(0.210983 -0.431976 0)
(0.161241 -0.46161 0)
(0.197726 -0.538896 0)
(0.240202 -0.1819 0)
(0.0695133 0.371656 0)
(0.11132 0.388512 0)
(0.131572 0.368218 0)
(0.144603 0.353283 0)
(0.15954 0.337892 0)
(0.173873 0.320181 0)
(0.186919 0.299689 0)
(0.198102 0.275842 0)
(0.206282 0.248404 0)
(0.00974723 -0.308317 0)
(0.0289121 -0.31725 0)
(0.0478557 -0.318579 0)
(0.0666534 -0.325161 0)
(0.0850604 -0.334293 0)
(0.10287 -0.345853 0)
(0.119841 -0.35993 0)
(0.135637 -0.376586 0)
(0.150185 -0.395821 0)
(0.160362 -0.417686 0)
(0.183014 -0.441286 0)
(0.135752 -0.467509 0)
(0.171889 -0.54023 0)
(0.203911 -0.0873438 0)
(0.0382157 0.376652 0)
(0.0977025 0.371787 0)
(0.117297 0.35241 0)
(0.129915 0.338559 0)
(0.14326 0.324085 0)
(0.155299 0.307611 0)
(0.165662 0.288835 0)
(0.173988 0.267543 0)
(0.179493 0.243879 0)
(0.0086682 -0.326754 0)
(0.025627 -0.335151 0)
(0.0423098 -0.33645 0)
(0.058832 -0.342704 0)
(0.0749118 -0.351307 0)
(0.0903448 -0.362127 0)
(0.104905 -0.375198 0)
(0.118302 -0.390519 0)
(0.130467 -0.408027 0)
(0.138759 -0.427697 0)
(0.15822 -0.448681 0)
(0.114145 -0.472056 0)
(0.149055 -0.540877 0)
(0.17165 0.0192933 0)
(0.021242 0.363456 0)
(0.0846178 0.352744 0)
(0.104304 0.33687 0)
(0.116551 0.325133 0)
(0.128366 0.312234 0)
(0.138399 0.297381 0)
(0.146608 0.280501 0)
(0.152861 0.261612 0)
(0.156681 0.241019 0)
(0.00764063 -0.343068 0)
(0.0225134 -0.350849 0)
(0.0370769 -0.352129 0)
(0.051482 -0.358023 0)
(0.0654259 -0.366069 0)
(0.0787146 -0.376132 0)
(0.0911449 -0.38821 0)
(0.102471 -0.402258 0)
(0.112637 -0.418178 0)
(0.119409 -0.435897 0)
(0.136132 -0.454639 0)
(0.0956951 -0.475623 0)
(0.128689 -0.540959 0)
(0.144953 0.118752 0)
(0.0238315 0.344814 0)
(0.0767395 0.333578 0)
(0.0943872 0.322345 0)
(0.105358 0.313274 0)
(0.115298 0.302301 0)
(0.123344 0.289208 0)
(0.129647 0.274167 0)
(0.134225 0.257357 0)
(0.136823 0.239171 0)
(0.00666924 -0.357367 0)
(0.0195829 -0.364489 0)
(0.0321716 -0.365765 0)
(0.0446155 -0.371292 0)
(0.0566042 -0.378785 0)
(0.0679577 -0.388112 0)
(0.0784982 -0.399248 0)
(0.0880241 -0.412121 0)
(0.0964905 -0.426614 0)
(0.102013 -0.442631 0)
(0.116354 -0.459466 0)
(0.0798482 -0.47844 0)
(0.110425 -0.54051 0)
(0.125481 0.190662 0)
(0.0369805 0.327875 0)
(0.0743398 0.31737 0)
(0.0878902 0.31019 0)
(0.0965117 0.303576 0)
(0.104124 0.294462 0)
(0.110062 0.283006 0)
(0.114523 0.26957 0)
(0.117601 0.254451 0)
(0.119181 0.238102 0)
(0.00575444 -0.369758 0)
(0.0168369 -0.376201 0)
(0.0275922 -0.377491 0)
(0.0382222 -0.382659 0)
(0.0484225 -0.389621 0)
(0.0580265 -0.398254 0)
(0.06688 -0.408513 0)
(0.0748235 -0.420319 0)
(0.0818224 -0.433548 0)
(0.0862912 -0.44809 0)
(0.0985226 -0.463321 0)
(0.0661319 -0.480653 0)
(0.0938908 -0.539684 0)
(0.109745 0.233835 0)
(0.0499335 0.315957 0)
(0.0744132 0.305679 0)
(0.0838136 0.301211 0)
(0.0896015 0.296499 0)
(0.0945847 0.288924 0)
(0.0982709 0.278792 0)
(0.100873 0.266594 0)
(0.102513 0.252728 0)
(0.103161 0.2377 0)
(0.00489444 -0.380419 0)
(0.0142709 -0.386182 0)
(0.0233288 -0.387505 0)
(0.0322811 -0.392331 0)
(0.0408432 -0.398798 0)
(0.0488618 -0.406797 0)
(0.0562004 -0.416266 0)
(0.0627349 -0.427124 0)
(0.0684436 -0.439249 0)
(0.0719892 -0.452522 0)
(0.0822856 -0.466422 0)
(0.0541084 -0.482404 0)
(0.078552 -0.538551 0)
(0.0954073 0.255358 0)
(0.0590854 0.30743 0)
(0.0754081 0.297789 0)
(0.0813618 0.295467 0)
(0.0841668 0.292334 0)
(0.0862868 0.28593 0)
(0.0875581 0.276698 0)
(0.0882434 0.265253 0)
(0.0884693 0.252133 0)
(0.0882331 0.237913 0)
(0.00408258 -0.389567 0)
(0.0118717 -0.394644 0)
(0.0193597 -0.39601 0)
(0.0267556 -0.400531 0)
(0.0338053 -0.406548 0)
(0.0403718 -0.41399 0)
(0.0463393 -0.422772 0)
(0.0516044 -0.432812 0)
(0.0561675 -0.443997 0)
(0.0588706 -0.456203 0)
(0.0674038 -0.46906 0)
(0.0435073 -0.483813 0)
(0.0639597 -0.537324 0)
(0.0835021 0.259307 0)
(0.0671866 0.299866 0)
(0.0779624 0.292779 0)
(0.0805698 0.293066 0)
(0.0799748 0.291527 0)
(0.0788101 0.285872 0)
(0.077413 0.276956 0)
(0.0760804 0.265629 0)
(0.0749239 0.252651 0)
(0.0738804 0.238691 0)
(0.00332925 -0.396491 0)
(0.00964626 -0.400877 0)
(0.0156541 -0.402285 0)
(0.0215875 -0.406538 0)
(0.027235 -0.412151 0)
(0.0324534 -0.419069 0)
(0.0371644 -0.427213 0)
(0.0412706 -0.436503 0)
(0.0447944 -0.446836 0)
(0.0466614 -0.458155 0)
(0.0537239 -0.470393 0)
(0.0341781 -0.484296 0)
(0.0493051 -0.537605 0)
(0.0823516 0.247449 0)
(0.078263 0.292675 0)
(0.0838018 0.290885 0)
(0.0820364 0.294712 0)
(0.0768684 0.294658 0)
(0.0715638 0.289117 0)
(0.0671274 0.279685 0)
(0.0636979 0.267692 0)
(0.0612642 0.25418 0)
(0.0595841 0.239915 0)
(0.00262739 -0.400695 0)
(0.00760863 -0.404576 0)
(0.0122328 -0.406102 0)
(0.0167874 -0.410104 0)
(0.0211811 -0.415384 0)
(0.0251999 -0.421861 0)
(0.0287846 -0.429463 0)
(0.0318523 -0.438107 0)
(0.0343751 -0.447628 0)
(0.0352092 -0.458083 0)
(0.0405193 -0.469839 0)
(0.0248181 -0.481708 0)
(0.0301043 -0.55398 0)
(0.0864015 0.211935 0)
(0.0927251 0.282832 0)
(0.0946692 0.294108 0)
(0.0861518 0.302232 0)
(0.074256 0.302732 0)
(0.0636494 0.296174 0)
(0.0557666 0.285006 0)
(0.0503134 0.271321 0)
(0.046863 0.256499 0)
(0.0448509 0.24136 0)
(0.00183498 -0.410974 0)
(0.00563458 -0.414008 0)
(0.00921882 -0.415883 0)
(0.0126109 -0.419766 0)
(0.0159078 -0.42493 0)
(0.0189179 -0.431265 0)
(0.0215834 -0.43869 0)
(0.023871 -0.447086 0)
(0.025522 -0.456176 0)
(0.025546 -0.465712 0)
(0.0281271 -0.476147 0)
(0.0134762 -0.476327 0)
(0.0133327 -0.602082 0)
(0.00134081 0.155585 0)
(0.116709 0.275253 0)
(0.116694 0.307423 0)
(0.0927423 0.319393 0)
(0.0706253 0.317918 0)
(0.0535726 0.307765 0)
(0.0419814 0.292894 0)
(0.0348844 0.276176 0)
(0.0309921 0.259182 0)
(0.0291919 0.242633 0)
(0.0014643 -0.425647 0)
(0.00425245 -0.427615 0)
(0.00658301 -0.429608 0)
(0.00909292 -0.433278 0)
(0.0114487 -0.438116 0)
(0.0135997 -0.444024 0)
(0.01549 -0.450892 0)
(0.0171174 -0.458544 0)
(0.0179632 -0.466869 0)
(0.018391 -0.474379 0)
(0.0209045 -0.482485 0)
(0.00729611 -0.465822 0)
(0.0904356 -0.52915 0)
(-0.024017 0.0125421 0)
(0.183933 0.251699 0)
(0.156683 0.337723 0)
(0.0991383 0.352256 0)
(0.0622463 0.342763 0)
(0.038182 0.324258 0)
(0.0237573 0.302765 0)
(0.0162171 0.281427 0)
(0.0129678 0.261472 0)
(0.0122244 0.243122 0)
(0.000623863 -0.378381 0)
(0.00212755 -0.380381 0)
(0.00330498 -0.382184 0)
(0.00457139 -0.385234 0)
(0.00569385 -0.389193 0)
(0.00663289 -0.393983 0)
(0.00736134 -0.399457 0)
(0.00774084 -0.405462 0)
(0.00791875 -0.412113 0)
(0.00657103 -0.418103 0)
(0.0206494 -0.423439 0)
(0.0292678 -0.454405 0)
(0.242493 -0.407355 0)
(0.30059 -0.174602 0)
(0.246259 0.404459 0)
(0.218954 0.450851 0)
(0.101405 0.406684 0)
(0.0423166 0.378162 0)
(0.012908 0.344181 0)
(-0.00139953 0.312912 0)
(-0.00686302 0.28568 0)
(-0.00770413 0.26225 0)
(-0.00623345 0.242011 0)
(-0.000582668 -0.333296 0)
(-0.00511673 -0.334613 0)
(-0.00811681 -0.337062 0)
(-0.0116011 -0.340664 0)
(-0.0152454 -0.345459 0)
(-0.0189955 -0.351405 0)
(-0.0227679 -0.358538 0)
(-0.0255904 -0.367027 0)
(-0.0245907 -0.376698 0)
(-0.0321154 -0.397255 0)
(0.0282997 -0.420586 0)
(0.114419 -0.649955 0)
(0.209083 -0.578634 0)
(0.48152 -0.402834 0)
(0.447954 0.1584 0)
(0.224817 0.522804 0)
(0.0509398 0.51848 0)
(-0.000329 0.425194 0)
(-0.0278766 0.363412 0)
(-0.035235 0.319611 0)
(-0.0349016 0.286276 0)
(-0.0311076 0.259829 0)
(-0.025973 0.238233 0)
(-0.00368575 -0.532924 0)
(-0.0284264 -0.533197 0)
(-0.0445985 -0.536206 0)
(-0.0630176 -0.539467 0)
(-0.0816686 -0.544436 0)
(-0.0999849 -0.551084 0)
(-0.11744 -0.56037 0)
(-0.128179 -0.572907 0)
(-0.129379 -0.588108 0)
(-0.13411 -0.651911 0)
(-0.0676979 -0.774378 0)
(0.148772 -0.846001 0)
(-0.225415 -1.13869 0)
(0.244354 0.0380966 0)
(-0.0233668 0.426329 0)
(-0.191514 0.706001 0)
(-0.12949 0.58356 0)
(-0.105944 0.447559 0)
(-0.0920382 0.367979 0)
(-0.0790708 0.316207 0)
(-0.06716 0.279778 0)
(-0.0561505 0.252445 0)
(-0.0461697 0.230877 0)
(-0.00957798 -0.357217 0)
(-0.027301 -0.358249 0)
(-0.0452827 -0.359601 0)
(-0.0638656 -0.362101 0)
(-0.0833696 -0.365716 0)
(-0.103862 -0.371171 0)
(-0.125413 -0.379599 0)
(-0.14753 -0.392939 0)
(-0.179757 -0.419467 0)
(-0.214054 -0.471375 0)
(-0.245561 -0.556652 0)
(-0.459797 -0.637355 0)
(-0.768282 -0.563868 0)
(-0.84345 -0.151353 0)
(-0.635099 0.527413 0)
(-0.546215 0.634956 0)
(-0.321513 0.508689 0)
(-0.219609 0.407847 0)
(-0.160604 0.34181 0)
(-0.124348 0.296343 0)
(-0.0992774 0.263666 0)
(-0.0804022 0.238971 0)
(-0.0653662 0.219426 0)
(-0.00959868 -0.369634 0)
(-0.0284311 -0.371864 0)
(-0.0474845 -0.372885 0)
(-0.0675523 -0.375026 0)
(-0.0885616 -0.378111 0)
(-0.111176 -0.38253 0)
(-0.13594 -0.388761 0)
(-0.164615 -0.397926 0)
(-0.203095 -0.412133 0)
(-0.248545 -0.428373 0)
(-0.316747 -0.462574 0)
(-0.478381 -0.529048 0)
(-0.708934 -0.496479 0)
(-0.82269 -0.185717 0)
(-0.736362 0.202654 0)
(-0.561374 0.361818 0)
(-0.383156 0.352191 0)
(-0.276298 0.322222 0)
(-0.20522 0.289895 0)
(-0.158143 0.261836 0)
(-0.125126 0.238784 0)
(-0.100738 0.219917 0)
(-0.081841 0.204231 0)
(-0.0096391 -0.344895 0)
(-0.0288983 -0.346461 0)
(-0.0486419 -0.347091 0)
(-0.069321 -0.347934 0)
(-0.0911746 -0.34922 0)
(-0.114941 -0.351047 0)
(-0.141449 -0.353556 0)
(-0.172501 -0.357123 0)
(-0.210601 -0.361235 0)
(-0.254736 -0.36217 0)
(-0.317967 -0.361755 0)
(-0.426095 -0.346912 0)
(-0.550952 -0.265393 0)
(-0.615042 -0.105841 0)
(-0.57512 0.0614019 0)
(-0.46605 0.182376 0)
(-0.362586 0.226356 0)
(-0.282725 0.237632 0)
(-0.22163 0.232529 0)
(-0.176008 0.221584 0)
(-0.141625 0.209277 0)
(-0.115214 0.197391 0)
(-0.0943873 0.18646 0)
(-0.00948871 -0.326358 0)
(-0.0289725 -0.327783 0)
(-0.0490183 -0.327759 0)
(-0.06974 -0.327549 0)
(-0.0917561 -0.327252 0)
(-0.115642 -0.326755 0)
(-0.142244 -0.325873 0)
(-0.172785 -0.324328 0)
(-0.208549 -0.32076 0)
(-0.250539 -0.313175 0)
(-0.304652 -0.301663 0)
(-0.374118 -0.273126 0)
(-0.439674 -0.200844 0)
(-0.469563 -0.0870266 0)
(-0.449427 0.0283489 0)
(-0.392798 0.107107 0)
(-0.328586 0.151955 0)
(-0.270594 0.174553 0)
(-0.221612 0.182851 0)
(-0.181709 0.183183 0)
(-0.149597 0.17944 0)
(-0.123736 0.173853 0)
(-0.102695 0.167577 0)
(-0.00941397 -0.30663 0)
(-0.028675 -0.307996 0)
(-0.0483758 -0.307194 0)
(-0.0687743 -0.306006 0)
(-0.0903482 -0.304246 0)
(-0.113536 -0.301688 0)
(-0.139009 -0.297942 0)
(-0.167425 -0.292392 0)
(-0.199342 -0.283715 0)
(-0.235518 -0.270182 0)
(-0.277686 -0.249656 0)
(-0.323862 -0.214382 0)
(-0.362279 -0.156092 0)
(-0.378222 -0.0796584 0)
(-0.366967 -0.00181447 0)
(-0.334972 0.060086 0)
(-0.29357 0.101853 0)
(-0.251585 0.127846 0)
(-0.213098 0.142449 0)
(-0.179584 0.14947 0)
(-0.151124 0.151711 0)
(-0.127205 0.151085 0)
(-0.107101 0.148814 0)
(-0.00927778 -0.287898 0)
(-0.0279172 -0.288839 0)
(-0.0469063 -0.287434 0)
(-0.0666626 -0.285367 0)
(-0.0873149 -0.282358 0)
(-0.109226 -0.278126 0)
(-0.132838 -0.272217 0)
(-0.158439 -0.263938 0)
(-0.186187 -0.252251 0)
(-0.216234 -0.235788 0)
(-0.248316 -0.212548 0)
(-0.279705 -0.178568 0)
(-0.303879 -0.13148 0)
(-0.313858 -0.0754204 0)
(-0.307321 -0.0193223 0)
(-0.287578 0.0291134 0)
(-0.260033 0.066208 0)
(-0.229714 0.0924983 0)
(-0.199948 0.109964 0)
(-0.172499 0.12084 0)
(-0.148064 0.127048 0)
(-0.126724 0.130073 0)
(-0.108221 0.130998 0)
(-0.00890483 -0.269897 0)
(-0.0266796 -0.27035 0)
(-0.0447942 -0.268566 0)
(-0.0635662 -0.265781 0)
(-0.082959 -0.261787 0)
(-0.103241 -0.256302 0)
(-0.124654 -0.248896 0)
(-0.147263 -0.238959 0)
(-0.170968 -0.225704 0)
(-0.195503 -0.208119 0)
(-0.220002 -0.184853 0)
(-0.242222 -0.154238 0)
(-0.258484 -0.115993 0)
(-0.265306 -0.0728501 0)
(-0.261486 -0.0296656 0)
(-0.2487 0.00912904 0)
(-0.229747 0.041155 0)
(-0.207605 0.0659449 0)
(-0.184665 0.0841768 0)
(-0.162481 0.097021 0)
(-0.141912 0.105693 0)
(-0.12332 0.111264 0)
(-0.106728 0.114609 0)
(-0.0083415 -0.25252 0)
(-0.0251203 -0.252676 0)
(-0.0422161 -0.250638 0)
(-0.0597294 -0.247345 0)
(-0.0776574 -0.242669 0)
(-0.0961462 -0.236367 0)
(-0.11529 -0.228076 0)
(-0.135025 -0.217318 0)
(-0.155107 -0.20353 0)
(-0.175092 -0.186041 0)
(-0.194074 -0.164097 0)
(-0.210435 -0.137117 0)
(-0.222044 -0.10546 0)
(-0.227066 -0.0709495 0)
(-0.224853 -0.036405 0)
(-0.216259 -0.00449752 0)
(-0.202869 0.0232007 0)
(-0.186476 0.0459285 0)
(-0.168749 0.0638253 0)
(-0.150918 0.077449 0)
(-0.133801 0.0875223 0)
(-0.117855 0.0947727 0)
(-0.103247 0.0998666 0)
(-0.00771791 -0.236119 0)
(-0.0233987 -0.23614 0)
(-0.0393136 -0.233889 0)
(-0.0554171 -0.230268 0)
(-0.0717833 -0.225179 0)
(-0.0884459 -0.218425 0)
(-0.1054 -0.209726 0)
(-0.122507 -0.198734 0)
(-0.139474 -0.185071 0)
(-0.155829 -0.168339 0)
(-0.170805 -0.148185 0)
(-0.183285 -0.124514 0)
(-0.191996 -0.0978227 0)
(-0.195926 -0.0693558 0)
(-0.194709 -0.0408517 0)
(-0.18873 -0.0139939 0)
(-0.179049 0.010098 0)
(-0.166777 0.0307058 0)
(-0.153007 0.0477575 0)
(-0.138696 0.0614638 0)
(-0.124544 0.0722258 0)
(-0.111008 0.080516 0)
(-0.0983127 0.0868217 0)
(-0.00710767 -0.221004 0)
(-0.0215897 -0.220949 0)
(-0.0361924 -0.218524 0)
(-0.050842 -0.214712 0)
(-0.0656284 -0.209414 0)
(-0.0805113 -0.202478 0)
(-0.0954233 -0.193704 0)
(-0.110195 -0.182852 0)
(-0.124535 -0.16969 0)
(-0.138018 -0.154013 0)
(-0.150043 -0.135704 0)
(-0.159848 -0.114867 0)
(-0.166647 -0.0919783 0)
(-0.16985 -0.0679154 0)
(-0.169243 -0.0438011 0)
(-0.165049 -0.0207577 0)
(-0.15795 0.000325313 0)
(-0.148631 0.0190128 0)
(-0.137852 0.0350339 0)
(-0.126353 0.0484396 0)
(-0.114693 0.0594345 0)
(-0.103281 0.0683121 0)
(-0.0923531 0.0754185 0)
(-0.00651442 -0.207243 0)
(-0.0197158 -0.207121 0)
(-0.0329394 -0.204589 0)
(-0.0461535 -0.200695 0)
(-0.0593941 -0.195339 0)
(-0.072588 -0.188412 0)
(-0.0856336 -0.179779 0)
(-0.0983579 -0.169291 0)
(-0.110498 -0.156821 0)
(-0.121697 -0.142287 0)
(-0.1315 -0.1257 0)
(-0.139387 -0.107241 0)
(-0.144858 -0.0873191 0)
(-0.147555 -0.0665727 0)
(-0.147359 -0.0457737 0)
(-0.144414 -0.025701 0)
(-0.139071 -0.00700711 0)
(-0.131902 0.00996831 0)
(-0.12345 0.0249243 0)
(-0.1142 0.0378353 0)
(-0.104611 0.0487835 0)
(-0.0950367 0.0579401 0)
(-0.0856985 0.0655441 0)
(-0.00591703 -0.194786 0)
(-0.0177986 -0.194595 0)
(-0.0296397 -0.192036 0)
(-0.0414607 -0.188147 0)
(-0.0532197 -0.182846 0)
(-0.0648349 -0.176059 0)
(-0.0761925 -0.167704 0)
(-0.0871302 -0.157702 0)
(-0.0974225 -0.145997 0)
(-0.106781 -0.132585 0)
(-0.114869 -0.11754 0)
(-0.121326 -0.101062 0)
(-0.125826 -0.0834923 0)
(-0.128142 -0.0653078 0)
(-0.128203 -0.0470633 0)
(-0.126108 -0.0293102 0)
(-0.122092 -0.0125281 0)
(-0.116561 0.00290917 0)
(-0.109872 0.01686 0)
(-0.102407 0.0292001 0)
(-0.0945284 0.0399415 0)
(-0.0865261 0.0491746 0)
(-0.0785954 0.0570596 0)
(-0.00530441 -0.183585 0)
(-0.0158708 -0.18333 0)
(-0.0263699 -0.180807 0)
(-0.0368484 -0.176988 0)
(-0.0472023 -0.17182 0)
(-0.0573525 -0.165257 0)
(-0.0671884 -0.15726 0)
(-0.0765637 -0.147798 0)
(-0.08529 -0.136863 0)
(-0.0931408 -0.124495 0)
(-0.0998663 -0.1108 0)
(-0.105215 -0.0959698 0)
(-0.108968 -0.080288 0)
(-0.110978 -0.0641216 0)
(-0.111205 -0.0478847 0)
(-0.109719 -0.0319894 0)
(-0.106691 -0.0168058 0)
(-0.102379 -0.00263385 0)
(-0.0970622 0.0104098 0)
(-0.0910415 0.0221694 0)
(-0.0845804 0.0326213 0)
(-0.0779178 0.0418038 0)
(-0.0712228 0.0498203 0)
(-0.00468348 -0.173621 0)
(-0.0139711 -0.173313 0)
(-0.0231869 -0.170862 0)
(-0.0323759 -0.167154 0)
(-0.0414035 -0.162165 0)
(-0.0501985 -0.155874 0)
(-0.0586593 -0.14827 0)
(-0.0666575 -0.139354 0)
(-0.0740387 -0.129151 0)
(-0.0806281 -0.117725 0)
(-0.0862406 -0.105193 0)
(-0.0906974 -0.0917316 0)
(-0.0938484 -0.0775772 0)
(-0.0955976 -0.0630203 0)
(-0.0959211 -0.0483804 0)
(-0.0948735 -0.0339753 0)
(-0.0925767 -0.0200937 0)
(-0.0892045 -0.00697116 0)
(-0.0849859 0.00525311 0)
(-0.0801287 0.0164507 0)
(-0.0748418 0.0265802 0)
(-0.0693205 0.0356384 0)
(-0.0637063 0.0436874 0)
(-0.00406758 -0.164882 0)
(-0.0121287 -0.164537 0)
(-0.0201228 -0.16217 0)
(-0.0280759 -0.158594 0)
(-0.0358545 -0.153805 0)
(-0.0433942 -0.147801 0)
(-0.0506043 -0.140591 0)
(-0.0573753 -0.132196 0)
(-0.0635834 -0.122661 0)
(-0.0690944 -0.112064 0)
(-0.0737706 -0.100522 0)
(-0.0774832 -0.0881933 0)
(-0.0801282 -0.0752787 0)
(-0.081642 -0.0620141 0)
(-0.0820116 -0.0486535 0)
(-0.0812781 -0.0354493 0)
(-0.0795297 -0.0226332 0)
(-0.0768903 -0.010404 0)
(-0.0735616 0.00108517 0)
(-0.0696572 0.011802 0)
(-0.0653439 0.0216163 0)
(-0.0607984 0.0305151 0)
(-0.0561308 0.0385351 0)
(-0.00346894 -0.157346 0)
(-0.0103579 -0.156979 0)
(-0.0171869 -0.154696 0)
(-0.0239587 -0.151256 0)
(-0.0305598 -0.146669 0)
(-0.0369314 -0.140945 0)
(-0.0429945 -0.134105 0)
(-0.048659 -0.126185 0)
(-0.0538273 -0.117242 0)
(-0.0583963 -0.107359 0)
(-0.0622629 -0.0966474 0)
(-0.0653341 -0.0852501 0)
(-0.0675374 -0.0733402 0)
(-0.0688305 -0.0611138 0)
(-0.0692072 -0.0487786 0)
(-0.0686998 -0.0365408 0)
(-0.0673772 -0.0245922 0)
(-0.0653404 -0.0131029 0)
(-0.0626874 -0.0022147 0)
(-0.0595472 0.00805718 0)
(-0.0560823 0.0175714 0)
(-0.0523841 0.0262977 0)
(-0.0485507 0.0342533 0)
(-0.00289441 -0.150977 0)
(-0.00866035 -0.150603 0)
(-0.0143726 -0.148399 0)
(-0.0200166 -0.14509 0)
(-0.025504 -0.140692 0)
(-0.0307816 -0.135225 0)
(-0.035784 -0.128717 0)
(-0.040439 -0.121214 0)
(-0.0446703 -0.11278 0)
(-0.0483986 -0.103496 0)
(-0.0515473 -0.0934699 0)
(-0.0540494 -0.0828299 0)
(-0.0558548 -0.0717277 0)
(-0.0569351 -0.0603302 0)
(-0.057288 -0.048812 0)
(-0.0569389 -0.037346 0)
(-0.0559399 -0.0260944 0)
(-0.0543637 -0.0152007 0)
(-0.0522909 -0.00478067 0)
(-0.0498203 0.00507765 0)
(-0.0470583 0.0143163 0)
(-0.0440933 0.0228736 0)
(-0.0409991 0.0307484 0)
(-0.00234417 -0.145722 0)
(-0.00702806 -0.145351 0)
(-0.0116646 -0.143219 0)
(-0.0162297 -0.140028 0)
(-0.0206584 -0.1358 0)
(-0.024905 -0.130558 0)
(-0.0289175 -0.124338 0)
(-0.0326397 -0.11719 0)
(-0.0360121 -0.10918 0)
(-0.038975 -0.100388 0)
(-0.0414724 -0.0909154 0)
(-0.0434572 -0.0808804 0)
(-0.0448945 -0.0704179 0)
(-0.0457658 -0.0596732 0)
(-0.0460709 -0.048797 0)
(-0.0458299 -0.0379387 0)
(-0.0450818 -0.0272396 0)
(-0.0438808 -0.0168265 0)
(-0.0422916 -0.00680825 0)
(-0.04039 0.00273404 0)
(-0.0382413 0.0117431 0)
(-0.0359232 0.0201501 0)
(-0.0334919 0.0279426 0)
(-0.00181472 -0.141488 0)
(-0.00544995 -0.141126 0)
(-0.00904584 -0.139057 0)
(-0.0125744 -0.135971 0)
(-0.0159908 -0.131888 0)
(-0.0192584 -0.126839 0)
(-0.0223376 -0.120861 0)
(-0.0251855 -0.114007 0)
(-0.0277575 -0.106342 0)
(-0.0300102 -0.0979447 0)
(-0.0319046 -0.088911 0)
(-0.0334082 -0.0793506 0)
(-0.0344976 -0.0693852 0)
(-0.0351609 -0.0591444 0)