/*--------------------------------*- C++ -*----------------------------------*\
| =========                 |                                                 |
| \\      /  F ield         | OpenFOAM: The Open Source CFD Toolbox           |
|  \\    /   O peration     | Version:  2206                                  |
|   \\  /    A nd           | Website:  www.openfoam.com                      |
|    \\/     M anipulation  |                                                 |
\*---------------------------------------------------------------------------*/
FoamFile
{
    version     2.0;
    format      ascii;
    arch        "LSB;label=32;scalar=64";
    class       surfaceScalarField;
    location    "0.725";
    object      alphaPhi0.water;
}
// * * * * * * * * * * * * * * * * * * * * * * * * * * * * * * * * * * * * * //

dimensions      [0 3 -1 0 0 0 0];

oriented        oriented;

internalField   nonuniform List<scalar> 
4432
(
-4.1571e-06
4.1571e-06
-8.54921e-06
4.39211e-06
-1.19343e-05
3.38507e-06
-1.46553e-05
2.72101e-06
-1.63819e-05
1.72663e-06
-1.61401e-05
-2.41792e-07
-1.39701e-05
-2.17007e-06
-1.13258e-05
-2.64423e-06
-9.60637e-06
-1.71947e-06
-9.11908e-06
-4.87291e-07
-9.64359e-06
5.2451e-07
-1.08998e-05
1.25623e-06
-1.26465e-05
1.7467e-06
-1.48061e-05
2.15959e-06
-1.71867e-05
2.38068e-06
-1.88757e-05
1.7489e-06
-1.98549e-05
1.37901e-06
-2.31337e-05
3.74996e-06
-2.99926e-05
5.63333e-06
-3.16899e-05
1.70909e-06
-2.52352e-05
-6.44024e-06
-1.23779e-05
-1.28144e-05
-1.23844e-05
-5.55307e-06
9.71018e-06
-9.82353e-06
8.66256e-06
-1.27485e-05
6.31002e-06
-1.52935e-05
5.266e-06
-1.70068e-05
3.44001e-06
-1.67876e-05
-4.61076e-07
-1.45149e-05
-4.44271e-06
-1.15808e-05
-5.57831e-06
-9.62212e-06
-3.67819e-06
-8.99262e-06
-1.1168e-06
-9.23775e-06
7.69636e-07
-1.0017e-05
2.03548e-06
-1.12066e-05
2.93634e-06
-1.28743e-05
3.8273e-06
-1.52778e-05
4.78418e-06
-1.88667e-05
5.34084e-06
-2.29792e-05
6.18514e-06
-2.67811e-05
8.05064e-06
-2.80351e-05
6.80027e-06
-2.45193e-05
-1.96133e-06
-1.76844e-05
-1.29184e-05
-8.95918e-06
-2.16153e-05
-2.13538e-05
-4.7917e-06
1.45019e-05
-8.45488e-06
1.23258e-05
-1.14671e-05
9.3222e-06
-1.45764e-05
8.37529e-06
-1.69486e-05
5.8123e-06
-1.70907e-05
-3.18971e-07
-1.50175e-05
-6.516e-06
-1.21512e-05
-8.4446e-06
-1.01214e-05
-5.70795e-06
-9.4269e-06
-1.81132e-06
-9.62044e-06
9.6317e-07
-1.01493e-05
2.56433e-06
-1.06967e-05
3.48372e-06
-1.11731e-05
4.30373e-06
-1.17835e-05
5.39459e-06
-1.32491e-05
6.80652e-06
-1.56306e-05
8.72644e-06
-1.65153e-05
9.97796e-06
-1.5539e-05
5.75615e-06
-1.24251e-05
-5.1622e-06
-8.46548e-06
-1.69459e-05
-3.6372e-06
-2.74717e-05
-2.50004e-05
-3.4419e-06
1.79438e-05
-6.47596e-06
1.53598e-05
-9.38313e-06
1.22294e-05
-1.22873e-05
1.12795e-05
-1.44004e-05
7.92535e-06
-1.4726e-05
6.67648e-09
-1.35373e-05
-7.70468e-06
-1.1862e-05
-1.012e-05
-1.05882e-05
-6.98167e-06
-1.0126e-05
-2.27361e-06
-1.04123e-05
1.2495e-06
-1.10123e-05
3.16431e-06
-1.15169e-05
3.98836e-06
-1.16485e-05
4.43534e-06
-1.13161e-05
5.06221e-06
-1.05955e-05
6.08588e-06
-9.4858e-06
7.61679e-06
-7.4667e-06
8.00317e-06
-4.59306e-06
3.25158e-06
-2.30474e-06
-7.60596e-06
-9.73311e-07
-1.94529e-05
4.53103e-07
-2.89016e-05
-2.45567e-05
-1.66865e-06
1.96124e-05
-3.54287e-06
1.7234e-05
-5.63009e-06
1.43166e-05
-7.37265e-06
1.3022e-05
-8.31197e-06
8.86467e-06
-8.66206e-06
3.56771e-07
-9.09142e-06
-7.27533e-06
-9.8417e-06
-9.36968e-06
-1.05057e-05
-6.31769e-06
-1.0894e-05
-1.88529e-06
-1.13681e-05
1.72356e-06
-1.19516e-05
3.74789e-06
-1.2403e-05
4.43975e-06
-1.24948e-05
4.52708e-06
-1.20713e-05
4.63874e-06
-1.08293e-05
4.84385e-06
-8.31753e-06
5.10506e-06
-4.57903e-06
4.26467e-06
-9.88348e-07
-3.39098e-07
1.20283e-06
-9.79715e-06
1.27181e-06
-1.95219e-05
1.74676e-06
-2.93798e-05
-2.281e-05
5.32941e-07
1.90795e-05
4.62324e-07
1.73046e-05
-1.95631e-07
1.49745e-05
-4.90977e-07
1.33174e-05
2.31763e-07
8.14194e-06
-6.81276e-08
6.56664e-07
-2.70547e-06
-4.63799e-06
-6.58233e-06
-5.49281e-06
-9.76102e-06
-3.13901e-06
-1.15059e-05
-1.40411e-07
-1.24015e-05
2.61911e-06
-1.29799e-05
4.3263e-06
-1.32645e-05
4.72434e-06
-1.31899e-05
4.45251e-06
-1.27465e-05
4.19538e-06
-1.17016e-05
3.79891e-06
-9.61339e-06
3.01686e-06
-6.44956e-06
1.10084e-06
-3.15968e-06
-3.62898e-06
-1.18732e-06
-1.17695e-05
-4.53965e-07
-2.02553e-05
1.00464e-06
-3.08384e-05
-2.18057e-05
2.48261e-06
1.65969e-05
4.47342e-06
1.53138e-05
6.39574e-06
1.30522e-05
8.60445e-06
1.11087e-05
9.72208e-06
7.02431e-06
7.79052e-06
2.58822e-06
2.40822e-06
7.44319e-07
-3.89788e-06
8.1321e-07
-8.91361e-06
1.87673e-06
-1.19416e-05
2.88754e-06
-1.34544e-05
4.13191e-06
-1.40844e-05
4.95632e-06
-1.41566e-05
4.7965e-06
-1.38037e-05
4.09968e-06
-1.32039e-05
3.59555e-06
-1.22575e-05
2.85253e-06
-1.06856e-05
1.44497e-06
-8.44751e-06
-1.13728e-06
-6.2097e-06
-5.86678e-06
-4.84175e-06
-1.31375e-05
-3.58555e-06
-2.15115e-05
-1.97355e-06
-3.24504e-05
-2.37795e-05
4.51127e-06
1.20856e-05
9.88772e-06
9.93737e-06
1.42833e-05
6.75416e-06
1.70146e-05
6.23001e-06
1.62069e-05
5.88293e-06
1.07895e-05
6.53018e-06
3.00856e-06
7.85183e-06
-4.03409e-06
7.85586e-06
-8.83224e-06
6.67488e-06
-1.20107e-05
6.06599e-06
-1.40808e-05
6.20207e-06
-1.50705e-05
5.94602e-06
-1.51567e-05
4.88261e-06
-1.4582e-05
3.52504e-06
-1.37752e-05
2.78874e-06
-1.27485e-05
1.82586e-06
-1.13337e-05
3.01006e-08
-9.57545e-06
-2.8955e-06
-8.0877e-06
-7.35454e-06
-7.50789e-06
-1.37173e-05
-7.4345e-06
-2.15849e-05
-7.66625e-06
-3.22185e-05
-3.14458e-05
1.16516e-05
-2.64815e-05
4.13372e-06
4.15604e-06
-3.19199e-06
3.89873e-06
-4.74467e-05
4.41284e-05
-9.81104e-05
5.06974e-05
-0.000131043
3.29665e-05
-0.000144207
1.32135e-05
-0.00014506
9.74544e-07
-0.000137696
-5.9427e-06
-0.000124104
-1.17003e-05
-0.000110377
-1.23259e-05
-9.63009e-05
-1.40476e-05
-8.00105e-05
-1.6507e-05
-6.72985e-05
-1.30849e-05
-5.95465e-05
-8.12695e-06
-5.09702e-05
-8.92965e-06
-3.59437e-05
-1.53752e-05
-1.1208e-05
-2.51316e-05
-1.1963e-05
7.24655e-06
-3.21636e-05
-6.6119e-06
1.42813e-05
-6.52469e-05
5.91225e-05
-0.000114163
9.27855e-05
-0.000128857
6.54251e-05
-0.000107334
1.70176e-05
-8.90763e-05
1.70551e-06
-7.67736e-05
-1.71992e-06
-6.37973e-05
-4.70292e-06
-5.38688e-05
-7.21307e-06
-4.93666e-05
-4.5827e-06
-4.45699e-05
-1.27423e-05
-4.26131e-05
-1.50606e-05
-4.83027e-05
-6.27324e-06
-5.47525e-05
-1.23958e-06
-5.70416e-05
-3.60696e-06
-5.10504e-05
-1.86102e-05
-3.02894e-05
-4.47023e-05
-4.18274e-05
-7.0554e-06
-2.35888e-05
-4.01183e-05
5.15593e-05
-9.4957e-05
0.000116927
-7.39308e-05
7.43184e-05
-2.1846e-05
1.49784e-05
-9.02815e-06
3.79121e-06
-9.0323e-06
5.23777e-08
-8.77544e-06
-4.13187e-06
-9.04375e-06
-6.73284e-06
-2.23019e-06
-1.83045e-05
8.99053e-07
-1.35843e-05
8.61231e-06
-9.58341e-06
2.13784e-05
-1.28636e-05
1.50561e-05
-3.10562e-06
5.77196e-06
6.66864e-06
-6.45191e-06
7.24093e-06
-1.4833e-05
-1.59717e-06
-2.80001e-05
-1.79726e-05
-6.94026e-05
-2.86052e-05
6.53575e-06
-7.40508e-05
9.85629e-05
-6.33063e-05
0.00010778
-1.54324e-05
3.23814e-05
-7.73635e-06
6.64674e-06
-6.05467e-06
1.07178e-06
-5.06619e-06
-2.01566e-06
-5.55201e-06
-5.2463e-06
-1.62782e-08
-2.86701e-05
9.67626e-06
-7.50403e-05
1.19363e-05
-3.59343e-05
2.18381e-05
-2.51839e-05
5.71777e-05
-2.22852e-05
5.80077e-05
-3.47438e-06
5.08925e-05
1.53737e-05
2.80565e-05
1.84463e-05
1.07618e-05
1.15134e-05
-7.12897e-06
-5.60715e-06
-7.39734e-05
-3.84168e-05
4.64719e-05
-6.27103e-05
0.000124346
-2.60754e-05
7.19672e-05
-6.96796e-06
1.2638e-05
-4.16847e-06
3.28678e-06
-3.49958e-06
-4.37374e-07
-2.73005e-06
-3.82309e-06
2.29564e-06
-2.445e-05
3.33985e-05
-0.000127105
4.80657e-05
-0.000129801
5.63545e-05
-9.99926e-05
6.60194e-05
-5.76365e-05
7.78026e-05
-3.35493e-05
7.12447e-05
3.91261e-06
6.42928e-05
2.31078e-05
5.57285e-05
2.77443e-05
2.50394e-05
2.95337e-05
6.93913e-06
8.16673e-06
-1.87638e-05
-3.97317e-05
8.76934e-05
-4.40876e-05
0.000130275
-8.75705e-06
3.7014e-05
-3.62618e-06
7.05643e-06
-2.29398e-06
1.4564e-06
-1.39086e-06
-1.90145e-06
2.26494e-06
-8.31598e-06
2.61641e-05
-0.000110888
4.6654e-05
-0.000148342
5.42702e-05
-0.000137135
6.59218e-05
-0.000111366
7.48434e-05
-6.64274e-05
6.87137e-05
-2.29684e-05
6.45595e-05
8.84907e-06
5.76119e-05
3.07737e-05
5.33772e-05
3.27367e-05
2.53913e-05
4.33962e-05
1.04806e-05
1.94462e-05
-9.17434e-06
-3.82588e-05
0.000127346
-2.12376e-05
0.00011296
-4.54317e-06
2.00329e-05
-2.30831e-06
4.50927e-06
-1.42283e-06
1.83398e-07
5.06051e-07
-4.32845e-06
1.51185e-05
-5.44969e-05
3.91183e-05
-0.000149074
4.35629e-05
-0.000152504
4.60012e-05
-0.000139192
5.17955e-05
-0.000116884
4.49185e-05
-7.65978e-05
2.43666e-05
-5.20552e-06
3.97696e-05
4.30695e-06
4.36783e-05
2.76472e-05
4.2456e-05
3.46537e-05
2.62714e-05
4.39069e-05
1.01116e-05
3.0619e-05
3.10016e-07
-3.41156e-05
0.000162675
-1.03805e-05
8.68969e-05
-2.29771e-06
1.16377e-05
-1.08483e-06
2.95987e-06
-2.79125e-07
-9.34616e-07
5.92687e-06
-1.09206e-05
2.59517e-05
-0.000119208
3.44217e-05
-0.00015727
3.42759e-05
-0.000151957
3.40117e-05
-0.000138555
3.3529e-05
-0.000116
7.21673e-06
-4.86086e-05
2.62066e-06
-4.74258e-07
1.22409e-05
2.26075e-07
2.90522e-05
1.53948e-05
3.25362e-05
3.1795e-05
2.89859e-05
4.79452e-05
8.31975e-06
4.51712e-05
7.69031e-06
2.82616e-06
-1.51352e-07
2.62431e-06
-3.23569e-07
5.68637e-07
-2.96758e-07
-2.15575e-06
-4.58772e-08
-5.52582e-06
5.73975e-07
-1.07282e-05
2.14032e-06
-1.75384e-05
4.81964e-06
-2.29922e-05
6.7869e-06
-2.54637e-05
7.4857e-06
-2.7919e-05
8.52123e-06
-3.07104e-05
8.99351e-06
-3.28687e-05
8.10433e-06
-3.31034e-05
5.11733e-06
-3.15451e-05
1.96675e-06
-3.00118e-05
1.25536e-06
-2.85339e-05
3.47963e-07
-2.64711e-05
-2.0327e-06
-2.34411e-05
-5.92547e-06
-2.0947e-05
-9.84865e-06
-2.06266e-05
-1.40376e-05
-2.35387e-05
-1.86728e-05
-3.24694e-05
-2.32878e-05
-1.80481e-05
-4.58663e-05
-1.76168e-06
-1.93408e-08
-3.13398e-06
2.92667e-08
-4.34149e-06
-5.01336e-08
-5.98978e-06
-2.06618e-08
-8.5266e-06
-1.58229e-07
-1.23554e-05
-2.20115e-07
-1.73827e-05
-1.10004e-07
-2.41879e-05
1.06948e-07
-3.12491e-05
3.49471e-08
-3.42603e-05
4.49179e-07
-3.34439e-05
2.00748e-06
-3.07588e-05
2.57436e-06
-2.81083e-05
1.54468e-06
-2.69689e-05
8.27338e-07
-2.71428e-05
1.42926e-06
-2.73736e-05
5.78735e-07
-2.60328e-05
-3.37335e-06
-2.28349e-05
-9.12318e-06
-2.05803e-05
-1.2103e-05
-2.01585e-05
-1.44592e-05
-2.17711e-05
-1.70601e-05
-2.57472e-05
-1.93114e-05
-1.58074e-05
-2.79873e-05
-3.75883e-08
6.47035e-10
-1.07467e-08
1.04703e-09
-6.13352e-08
-6.28769e-10
-1.74574e-07
-2.59511e-09
-6.52825e-07
4.06021e-09
-1.62234e-06
-4.44268e-11
-3.09035e-06
-3.02169e-10
-5.08298e-06
-1.88172e-09
-8.79307e-06
-1.03776e-08
-1.52244e-05
-4.98282e-08
-2.20793e-05
-2.03329e-07
-2.69087e-05
-5.76668e-07
-2.93906e-05
-1.50614e-06
-2.90102e-05
-3.09866e-06
-2.53392e-05
-4.37681e-06
-2.17273e-05
-3.65857e-06
-2.02203e-05
-4.74855e-06
-2.09345e-05
-7.49624e-06
-2.13592e-05
-1.04409e-05
-2.05764e-05
-1.47877e-05
-1.91506e-05
-1.89302e-05
-1.83087e-05
-2.01485e-05
-1.74753e-05
-1.66373e-05
-1.4311e-09
7.01028e-10
-5.26357e-10
-4.53996e-11
-1.24613e-09
2.77019e-12
-4.04301e-09
1.19447e-11
-6.61855e-12
2.03257e-11
-5.14803e-11
2.28012e-13
-3.53948e-10
-1.49555e-13
-2.23713e-09
-3.49705e-12
-1.26073e-08
-3.34628e-11
-6.24155e-08
-1.16025e-10
-2.65825e-07
-2.0107e-10
-8.3881e-07
-4.47801e-09
-2.32361e-06
-2.37866e-08
-7.55419e-06
-1.06491e-07
-1.50051e-05
-3.62346e-07
-2.22559e-05
-9.01651e-07
-2.99312e-05
-1.69071e-06
-3.77716e-05
-3.32513e-06
-4.28654e-05
-8.36417e-06
-4.7815e-05
-1.35959e-05
-4.90433e-05
-1.65682e-05
-4.0446e-05
-1.58631e-05
-1.15429e-05
-2.90074e-05
1.34061e-10
3.49278e-10
-2.14679e-11
1.05821e-11
-2.41347e-11
1.8415e-12
-2.26743e-11
1.34095e-13
-1.56236e-13
-4.00624e-13
-8.2961e-14
2.18817e-14
-2.48072e-13
-5.63135e-15
-3.95826e-12
-1.9668e-13
-3.83446e-11
-2.09404e-13
-1.63843e-10
1.0309e-12
-4.60929e-10
1.36605e-12
-5.21543e-09
-4.88779e-12
-2.97403e-08
-5.26593e-11
-1.33545e-07
-1.06072e-09
-4.95332e-07
-3.94667e-10
-1.39559e-06
-1.63168e-09
-3.08067e-06
-7.02848e-09
-1.18655e-05
-3.3007e-08
-2.16887e-05
-1.32307e-07
-2.24544e-05
-4.44988e-07
-1.92829e-05
-1.18873e-06
-1.06202e-05
-2.05975e-06
-2.35489e-06
-5.74251e-06
1.57203e-10
5.4936e-11
1.2428e-12
3.86169e-11
4.49003e-13
1.70622e-12
5.85869e-13
-2.28483e-13
1.23874e-13
-2.0005e-14
-1.73702e-15
2.93515e-14
-2.05687e-14
7.40556e-15
-4.06713e-14
9.55339e-14
-2.95114e-13
3.99227e-13
-1.27712e-12
1.74161e-12
-2.4791e-11
1.64514e-11
-1.13185e-09
7.07368e-10
-3.29088e-09
1.3868e-09
-1.36659e-10
2.54177e-10
-4.84476e-10
5.3269e-12
-2.11313e-09
-3.74697e-11
-8.80846e-09
-6.31365e-10
-3.42867e-08
-8.94616e-09
-9.67719e-08
-7.55999e-08
-2.16203e-07
-3.49546e-07
-5.06296e-07
-9.85454e-07
-1.10457e-06
-1.72183e-06
-2.32441e-06
-1.90566e-06
2.50851e-11
4.85778e-12
2.44547e-12
-1.16462e-12
-5.53088e-14
7.43201e-13
5.72874e-14
-1.46148e-14
8.86795e-15
-3.38903e-15
2.17105e-15
2.00889e-15
5.11048e-16
2.01928e-15
-2.79739e-13
2.19253e-13
-2.05974e-13
3.70995e-12
8.49076e-14
3.71309e-12
1.06637e-11
7.78863e-12
-3.96412e-10
6.15796e-10
-7.38495e-10
1.35789e-09
-7.89846e-11
9.53949e-10
-6.9395e-11
4.3961e-12
-1.73568e-10
7.79448e-12
-1.03262e-09
-4.3561e-11
-6.6379e-09
-5.71615e-09
-8.97031e-09
-9.15896e-08
5.39423e-10
-4.7079e-07
2.50953e-07
-1.52414e-06
-2.5583e-06
-3.70409e-06
-9.89246e-06
-7.57762e-05
2.09774e-12
3.33678e-13
9.34129e-14
5.7788e-14
3.07461e-14
8.57912e-15
8.3163e-15
1.5254e-14
1.17006e-15
3.57227e-15
2.45967e-16
6.49413e-16
2.81773e-15
9.03376e-16
-1.30371e-13
9.09924e-14
-3.29733e-13
2.99213e-12
2.03745e-13
5.84706e-12
-6.88081e-13
9.77981e-12
-9.16279e-11
1.11308e-10
-7.15145e-11
2.51652e-10
-8.76101e-12
1.85802e-11
-2.60763e-12
3.934e-12
-2.47337e-11
3.36773e-12
-2.80667e-10
1.03795e-10
-8.02828e-09
-3.07546e-10
-1.13881e-07
-2.28816e-08
-7.85343e-07
-1.22124e-07
-3.62131e-06
-5.17522e-07
-6.83245e-05
-2.38611e-06
-2.72837e-06
-0.000205449
5.18027e-14
4.2714e-14
1.56939e-14
1.30804e-14
4.15959e-15
4.50853e-15
2.22891e-15
2.41552e-15
3.31689e-16
1.02655e-15
1.18784e-16
5.0758e-16
1.90823e-16
6.40657e-16
-2.39762e-14
2.02003e-14
2.07916e-14
9.41832e-13
6.10453e-13
3.67169e-12
-7.85713e-12
1.47074e-11
-9.62524e-12
-2.22053e-11
-3.94097e-12
-2.66224e-11
-2.75469e-13
9.77509e-14
1.02563e-13
1.17978e-13
-1.19902e-12
1.13709e-12
3.67729e-11
3.92703e-11
-1.74557e-09
5.75023e-10
-4.99535e-08
7.89551e-09
-3.62823e-07
6.27363e-08
-1.70008e-06
2.12799e-07
-4.83975e-05
-2.9851e-07
-8.40146e-07
-8.19777e-05
1.27135e-15
5.00919e-15
1.06949e-15
2.6751e-15
3.74559e-16
8.96634e-16
1.52543e-16
2.46345e-16
8.84917e-17
2.12817e-16
6.57644e-17
4.47089e-16
9.99684e-17
6.96782e-16
1.43896e-16
3.85446e-15
2.81222e-14
-1.93592e-14
-1.01405e-12
5.42546e-13
-1.09607e-12
3.31502e-12
-8.90564e-13
6.17368e-16
-2.73309e-13
-1.98886e-12
-4.23526e-14
-2.68009e-13
-1.15553e-15
5.41172e-14
4.7971e-13
5.24197e-13
2.76085e-11
1.03989e-11
4.7183e-10
-2.2884e-11
3.37983e-09
-1.66423e-11
3.4905e-08
7.3194e-12
-4.76465e-07
1.92317e-08
-5.19138e-06
-5.42474e-08
-5.43269e-07
-8.20107e-06
1.4653e-16
1.79386e-15
7.6028e-17
3.90099e-16
2.63987e-17
9.09718e-17
1.91566e-17
3.10234e-17
2.49653e-17
1.00305e-16
6.00652e-17
3.88154e-16
7.43604e-17
7.2608e-16
2.3679e-16
1.23865e-15
1.73664e-18
1.0646e-14
-6.84427e-14
4.35078e-14
-2.9493e-14
4.04494e-14
-1.27987e-13
1.32036e-13
-3.78381e-14
3.35737e-13
-1.27234e-14
9.78814e-14
-1.74794e-14
5.63839e-14
9.66733e-14
3.87381e-13
-4.24117e-12
3.94195e-11
1.08772e-11
1.4407e-11
-1.78728e-10
4.07424e-11
-1.5074e-09
-2.16623e-10
-4.26464e-09
-2.94558e-09
-5.03872e-08
-7.67579e-09
9.53645e-09
-1.02912e-06
2.2287e-17
2.97809e-16
4.18213e-18
3.2534e-17
2.02823e-18
7.2873e-18
1.93342e-18
5.79119e-18
1.4079e-17
5.80857e-17
4.63185e-17
2.85551e-16
7.29754e-17
6.77566e-16
1.26407e-16
6.73388e-16
2.36364e-15
1.81784e-14
5.86572e-15
1.07989e-13
1.91459e-15
8.3801e-14
-3.28997e-15
1.52425e-13
-1.47988e-14
2.28079e-13
-1.8834e-15
2.0096e-13
-5.4062e-14
5.31944e-14
-1.02416e-12
1.39643e-12
-1.08817e-11
2.48713e-11
1.99257e-12
5.26497e-12
3.53925e-11
3.24289e-11
3.12465e-10
1.67164e-09
8.54917e-09
1.13592e-08
4.74669e-09
9.86392e-10
2.21961e-08
-1.06895e-08
2.6077e-18
2.8217e-17
2.3968e-19
2.50596e-18
2.14171e-19
6.02059e-19
3.69996e-19
1.54799e-18
6.21282e-18
2.66562e-17
2.70114e-17
1.46636e-16
5.12173e-17
5.18764e-16
9.4646e-17
5.85039e-16
3.0388e-15
1.4157e-14
1.08028e-14
1.56415e-13
6.23816e-15
1.67985e-13
5.12571e-16
1.8303e-13
-5.44847e-15
1.14873e-13
-1.54319e-15
6.29616e-14
-4.81617e-14
4.29433e-14
-1.67164e-12
1.4302e-12
-7.27344e-13
1.59049e-13
1.16891e-12
1.61924e-12
9.02931e-12
2.13702e-11
5.26372e-10
2.17242e-09
7.79968e-09
1.01029e-08
6.06725e-09
8.39612e-09
2.06431e-08
4.80779e-09
2.74097e-19
2.75211e-18
1.56257e-20
2.02789e-19
1.69785e-20
5.02892e-20
1.09425e-19
4.29804e-19
1.9418e-18
7.68631e-18
1.07007e-17
4.98336e-17
3.78998e-17
3.20557e-16
7.69442e-17
5.71889e-16
1.95455e-15
6.28636e-15
1.25039e-14
1.47586e-13
7.97812e-15
1.91587e-13
7.66559e-16
2.10795e-13
-1.13978e-15
1.23162e-13
-1.49137e-15
5.55728e-15
-5.19599e-14
3.68739e-14
-5.51141e-14
1.13956e-13
-7.56768e-14
7.22304e-14
-1.05948e-12
1.07601e-12
4.779e-12
1.41281e-11
-1.11152e-09
1.84909e-09
-3.09572e-09
4.83728e-09
-5.41984e-10
1.09232e-08
1.36092e-08
2.17083e-09
2.69087e-20
2.70482e-19
1.10151e-21
1.60777e-20
1.19239e-21
3.9831e-21
2.48199e-20
9.33934e-20
4.23975e-19
1.4986e-18
3.0758e-18
1.32158e-17
2.30571e-17
1.80773e-16
5.7371e-17
5.58044e-16
6.47896e-16
1.955e-15
7.29134e-15
6.38634e-14
4.61144e-15
1.43378e-13
-2.95608e-16
2.19927e-13
-3.12194e-16
9.2877e-14
-4.75632e-16
5.39587e-16
-3.24236e-15
5.07607e-15
-4.53433e-15
1.34092e-15
-1.20824e-14
3.6165e-14
1.06677e-13
8.50056e-13
-1.41966e-10
7.5947e-11
-3.49974e-10
2.38395e-10
1.30233e-09
1.25689e-09
-4.19865e-09
1.40441e-08
8.75942e-08
-1.10988e-07
2.45725e-21
2.58682e-20
7.42711e-23
1.20094e-21
7.94903e-23
3.27288e-22
4.30136e-21
1.49067e-20
7.36608e-20
2.4585e-19
7.79967e-19
3.45168e-18
1.2444e-17
9.57731e-17
3.97398e-17
4.82896e-16
1.1774e-16
7.03793e-16
1.85237e-15
9.91376e-15
2.26106e-15
4.72967e-14
-6.11175e-16
1.16501e-13
-7.86858e-17
2.6718e-14
-7.9434e-17
1.09904e-16
-1.66375e-16
3.53213e-16
1.66871e-16
6.661e-16
1.93865e-14
9.99689e-15
-1.12919e-12
1.09473e-12
5.0028e-12
9.15983e-12
1.09159e-10
6.94453e-11
-1.38645e-09
2.48935e-09
-1.54169e-08
2.49763e-08
2.18443e-07
-7.17688e-07
2.18965e-22
2.31262e-21
5.30762e-24
9.94363e-22
4.71409e-24
2.44954e-22
5.99917e-22
1.86275e-21
1.155e-20
3.74917e-20
2.00555e-19
9.26842e-19
5.90326e-18
4.14936e-17
2.25433e-17
3.04637e-16
2.91765e-17
3.4652e-16
2.25965e-16
9.50393e-16
5.53506e-16
6.11891e-15
-5.70061e-17
2.16967e-14
-5.64267e-18
2.65335e-15
-6.72154e-18
4.10606e-17
-2.0692e-17
5.6208e-17
-3.0587e-17
1.86758e-16
6.64783e-16
3.50025e-15
4.14644e-13
1.15669e-13
7.23044e-12
1.75714e-12
4.28805e-12
6.43083e-11
4.07673e-10
1.9397e-09
-7.28057e-08
3.25093e-08
1.43353e-07
-4.36115e-07
2.66654e-23
2.36568e-22
-2.02657e-24
-7.4936e-23
-4.27405e-24
-1.3143e-22
7.33815e-23
1.71466e-22
1.69044e-21
5.20682e-21
5.15088e-20
2.31162e-19
2.20661e-18
1.23285e-17
1.12056e-17
1.16671e-16
1.34621e-17
1.69651e-16
2.63436e-17
1.64963e-16
9.52666e-17
5.66673e-16
6.35325e-17
1.79763e-15
-4.09358e-19
2.10894e-16
-1.21926e-18
1.61753e-17
-3.05675e-18
1.42821e-17
-4.97882e-17
4.55722e-17
5.74541e-16
1.12039e-15
8.62971e-14
1.59769e-14
1.09482e-12
6.57263e-13
3.55834e-11
2.75112e-11
1.4353e-09
4.82733e-10
-4.93961e-08
2.76338e-08
3.81183e-09
-1.19411e-08
2.07105e-24
1.60363e-22
-4.81429e-24
-1.90165e-22
-6.36802e-24
-2.06253e-22
1.21052e-23
1.71399e-23
2.30442e-22
6.50044e-22
1.22574e-20
4.88969e-20
5.89288e-19
2.35994e-18
4.22705e-18
2.51326e-17
5.55349e-18
5.98735e-17
5.42224e-18
5.21856e-17
1.53877e-17
8.12112e-17
1.92453e-17
1.57916e-16
1.84845e-19
2.4685e-17
-1.0193e-19
4.58531e-18
-3.42969e-19
3.0743e-18
-1.23558e-17
7.8391e-18
-3.72622e-17
2.24731e-16
1.25676e-14
2.14532e-15
5.86241e-13
6.78971e-14
2.42973e-11
3.21668e-12
-1.03107e-09
3.73565e-10
-8.67444e-10
2.96043e-10
2.72931e-09
-1.49707e-09
-8.47488e-25
-6.77489e-23
-3.36103e-24
-1.38816e-22
-5.41037e-24
-1.79158e-22
4.45573e-24
7.27382e-24
2.94227e-23
7.48438e-23
2.55395e-21
8.51333e-21
1.13563e-19
3.30292e-19
1.01233e-18
3.48653e-18
1.97836e-18
1.28877e-17
2.18961e-18
1.77932e-17
3.14959e-18
1.86929e-17
3.70674e-18
1.88143e-17
1.35083e-19
3.88167e-18
3.14812e-20
8.3685e-19
5.80647e-21
4.27795e-19
-1.75708e-19
9.49445e-19
-1.05952e-17
2.94405e-17
3.62884e-16
7.86175e-16
6.4622e-14
8.57902e-15
-2.5425e-13
5.66559e-13
-2.36517e-11
4.78005e-12
-3.32718e-12
5.39973e-11
1.24375e-09
-7.2115e-11
-1.05829e-24
-8.46994e-23
-1.90835e-24
-8.0363e-23
-3.7792e-24
-1.24379e-22
-1.57066e-25
-4.17862e-24
3.75079e-24
7.53688e-24
4.56925e-22
1.23467e-21
1.7855e-20
4.12217e-20
1.72917e-19
4.18935e-19
5.4262e-19
1.88244e-18
7.7702e-19
4.32967e-18
8.29441e-19
4.64695e-18
6.38719e-19
2.78117e-18
4.59334e-20
7.23996e-19
1.19082e-20
1.27359e-19
9.41997e-21
4.67927e-20
2.65391e-20
1.04445e-19
6.84078e-19
3.15308e-18
1.11794e-17
9.18255e-17
1.66787e-16
3.11476e-15
3.0641e-14
4.47208e-14
1.84474e-13
8.85702e-13
3.74036e-14
2.77729e-11
1.41957e-09
-4.0534e-10
-7.67562e-25
-6.02622e-23
-9.75441e-25
-4.09255e-23
-2.31416e-24
-7.40133e-23
-2.73792e-25
-6.94987e-24
6.68563e-25
7.50681e-25
7.03798e-23
1.533e-22
2.57609e-21
5.0303e-21
2.61093e-20
5.20117e-20
1.0384e-19
2.40476e-19
1.98073e-19
6.54993e-19
2.20099e-19
8.43754e-19
9.70137e-20
4.45724e-19
1.36049e-20
1.40296e-19
2.55514e-21
2.20112e-20
2.13597e-21
5.08344e-21
7.33575e-21
1.11298e-20
2.71674e-19
3.39723e-19
6.86068e-18
9.10372e-18
4.20232e-16
3.31721e-16
4.22781e-14
4.62314e-15
5.83109e-13
2.80152e-13
8.09592e-12
1.76165e-11
5.20948e-09
-3.80895e-09
-4.73647e-25
-3.60049e-23
-4.57863e-25
-1.87991e-23
-1.26579e-24
-3.875e-23
-2.3457e-25
-5.61376e-24
2.84432e-25
2.2131e-25
9.46321e-24
1.67521e-23
3.5449e-22
5.91814e-22
3.8281e-21
6.54104e-21
1.64644e-20
2.99154e-20
3.52634e-20
7.35085e-20
4.21421e-20
1.03079e-19
1.82913e-20
6.43851e-20
3.72703e-21
2.41749e-20
4.94755e-22
3.96151e-21
3.5638e-22
5.08243e-22
1.23149e-21
1.07101e-21
5.15627e-20
3.5985e-20
1.47753e-18
1.0445e-18
6.54889e-17
3.74781e-17
6.5529e-15
6.45427e-16
2.31783e-13
5.14999e-14
1.50038e-11
2.54788e-12
6.57265e-10
4.52754e-09
-2.64684e-25
-1.93251e-23
-1.97879e-25
-7.85688e-24
-6.22655e-25
-1.80951e-23
-1.51417e-25
-3.39897e-24
5.68077e-26
1.30858e-26
1.12325e-24
1.64313e-24
4.56849e-23
6.42702e-23
5.33944e-22
7.66911e-22
2.3242e-21
3.46702e-21
4.87075e-21
7.63142e-21
6.03198e-21
1.0446e-20
3.25778e-21
7.73894e-21
8.20625e-22
3.26447e-21
8.32947e-23
5.41739e-22
4.223e-23
4.12724e-23
1.51093e-22
8.66532e-23
7.70266e-21
3.50725e-21
2.48372e-19
1.12389e-19
9.78429e-18
4.08884e-18
4.89374e-16
1.56163e-16
4.6529e-14
4.77192e-15
2.32271e-12
2.39233e-13
6.2589e-11
5.96589e-10
-1.35766e-25
-9.49074e-24
-7.87291e-26
-3.0026e-24
-2.76488e-25
-7.60319e-24
-8.0889e-26
-1.70161e-24
-1.81351e-27
-3.0561e-26
1.21622e-25
1.47377e-25
5.33732e-24
6.27367e-24
6.7132e-23
7.91989e-23
2.91897e-22
3.56525e-22
5.933e-22
7.61018e-22
7.42689e-22
1.01924e-21
4.75105e-22
7.98274e-22
1.29401e-22
3.37918e-22
1.00168e-23
4.25124e-23
4.56996e-24
3.37557e-23
1.21993e-23
6.39426e-23
9.30363e-22
2.74574e-22
3.43643e-20
1.09215e-20
1.39423e-18
3.94761e-19
4.9753e-17
1.11423e-17
4.54495e-15
1.97607e-16
2.22717e-13
1.7721e-14
4.40498e-12
5.83585e-11
-6.40484e-26
-4.29244e-24
-2.8863e-26
-1.05394e-24
-1.11204e-25
-2.89358e-24
-3.71386e-26
-7.34398e-25
-1.48354e-27
-2.33602e-26
1.32385e-26
1.18367e-26
5.58614e-25
5.56223e-25
7.40671e-24
7.22358e-24
3.24301e-23
3.26951e-23
6.57332e-23
7.04387e-23
8.29684e-23
9.43828e-23
5.6666e-23
7.3045e-23
1.38784e-23
2.51125e-23
6.33535e-24
2.82134e-23
-1.34131e-23
-5.28092e-23
-9.05589e-24
-3.14141e-23
8.90345e-23
5.33017e-23
4.02482e-21
9.55027e-22
1.64056e-19
3.4495e-20
4.90615e-18
8.81156e-19
2.16645e-16
2.19687e-17
1.61748e-14
1.42256e-15
3.30927e-13
4.085e-12
-2.78191e-26
-1.79369e-24
-9.76508e-27
-3.41418e-25
-4.0659e-26
-1.00288e-24
-1.49767e-26
-2.79722e-25
-7.8553e-28
-1.16342e-26
1.82523e-27
9.83798e-28
5.32916e-26
4.62489e-26
7.28338e-25
6.06868e-25
3.23047e-24
2.77058e-24
6.60576e-24
6.03226e-24
8.38441e-24
8.01224e-24
5.53615e-24
5.56148e-24
3.75752e-24
9.43154e-24
-3.43007e-24
-1.35123e-23
-1.98845e-23
-6.8713e-23
-1.81829e-23
-5.49345e-23
2.11918e-23
1.3927e-23
4.00856e-22
6.74715e-23
1.66378e-20
2.79862e-21
4.76866e-19
6.71597e-20
1.46508e-17
1.7505e-18
1.31757e-15
8.5756e-17
2.01902e-14
3.11602e-13
-1.11608e-26
-6.94174e-25
-3.05947e-27
-1.0262e-25
-1.35554e-26
-3.18078e-25
-5.38298e-27
-9.54734e-26
-3.35519e-28
-4.70793e-27
3.75127e-28
2.14384e-28
4.75181e-27
3.68044e-27
6.58165e-26
4.8492e-26
2.95203e-25
2.22492e-25
6.02242e-25
4.82985e-25
7.57893e-25
5.95688e-25
7.1537e-25
3.69672e-25
1.34382e-25
5.50613e-25
-6.1659e-24
-2.20834e-23
-1.68445e-23
-5.26455e-23
-1.64921e-23
-4.48489e-23
-3.37783e-24
-7.95963e-24
3.12018e-23
1.24276e-23
1.51303e-21
2.14877e-22
4.1594e-20
5.07332e-21
1.05462e-18
9.86086e-20
8.25506e-17
1.94566e-18
6.97679e-16
1.95402e-14
-4.15623e-27
-2.49346e-25
-8.92047e-28
-2.8793e-26
-4.13524e-27
-9.27298e-26
-1.74138e-27
-2.95253e-26
-1.23301e-28
-1.65223e-27
6.19317e-29
2.91515e-29
3.98343e-28
2.75296e-28
5.56379e-27
3.69453e-27
2.50305e-26
1.69055e-26
4.73868e-26
3.48634e-26
6.36484e-26
4.01571e-26
6.15425e-26
2.70214e-25
-8.03054e-25
-3.07234e-24
-4.93958e-24
-1.64596e-23
-1.06946e-23
-3.09917e-23
-1.07607e-23
-2.70467e-23
-4.14423e-24
-9.00153e-24
5.29478e-24
2.98857e-24
1.2792e-22
1.58835e-23
3.50573e-21
4.09497e-22
7.56054e-20
6.76554e-21
1.80934e-18
5.95573e-20
1.266e-17
6.83632e-16
-1.44485e-27
-8.32952e-26
-2.43445e-28
-7.59324e-27
-1.15682e-27
-2.49534e-26
-5.10886e-28
-8.34327e-27
-4.01046e-29
-5.17592e-28
-3.53982e-31
-3.73808e-30
3.0742e-29
1.736e-29
4.38895e-28
2.58208e-28
1.91821e-27
1.14279e-27
3.63311e-27
2.33481e-27
6.13715e-27
2.95632e-26
-5.45745e-26
-2.28413e-25
-7.00764e-25
-2.55013e-24
-2.85113e-24
-9.01698e-24
-5.47786e-24
-1.5033e-23
-5.56857e-24
-1.32276e-23
-2.62518e-24
-5.37874e-24
-1.77525e-25
-3.123e-25
1.02438e-23
9.50235e-25
3.16901e-22
3.93688e-23
5.80323e-21
5.58877e-22
6.22284e-20
4.03257e-21
4.64335e-19
1.20719e-17
-4.70883e-28
-2.5925e-26
-6.26008e-29
-1.89648e-27
-2.97397e-28
-6.22355e-27
-1.36655e-28
-2.16908e-27
-1.17158e-29
-1.47029e-28
-4.36554e-31
-4.48229e-30
2.23668e-30
2.76689e-30
3.02796e-29
1.76134e-29
1.34546e-28
7.999e-29
3.21277e-28
1.73066e-27
-2.27788e-27
-1.06277e-26
-5.56642e-26
-2.25416e-25
-3.919e-25
-1.3784e-24
-1.31699e-24
-4.02109e-24
-2.3436e-24
-6.20184e-24
-2.38229e-24
-5.45022e-24
-1.2378e-24
-2.43958e-24
-2.82234e-25
-4.77014e-25
8.09166e-25
2.95931e-25
3.33423e-23
4.31349e-24
5.20665e-22
5.46243e-23
4.4635e-21
3.76402e-22
1.76124e-20
4.4139e-19
-1.43931e-28
-7.53035e-27
-1.52662e-29
-4.5208e-28
-7.03896e-29
-1.44445e-27
-3.34534e-29
-5.21808e-28
-3.09952e-30
-3.82495e-29
-2.27283e-31
-2.29513e-30
2.469e-31
7.55838e-31
2.18993e-30
1.2995e-29
9.17921e-30
5.62999e-29
-9.35939e-29
-4.94922e-28
-2.82128e-27
-1.29147e-26
-3.09277e-26
-1.2282e-25
-1.70668e-25
-5.88368e-25
-5.09219e-25
-1.52316e-24
-8.56156e-25
-2.21832e-24
-8.63778e-25
-1.93369e-24
-4.73313e-25
-9.12088e-25
-1.42728e-25
-2.35622e-25
1.25531e-25
2.76722e-26
3.56046e-24
4.05587e-25
5.04823e-23
5.0044e-24
4.06578e-22
3.803e-23
5.53917e-22
1.67681e-20
-4.11627e-29
-2.04433e-27
-3.54735e-30
-1.03574e-28
-1.53584e-29
-3.13266e-28
-7.51285e-30
-1.16744e-28
-7.45947e-31
-9.17762e-30
-9.392e-32
-9.45753e-31
-1.66453e-31
-1.40061e-30
-4.63357e-31
-3.30548e-30
-6.12379e-30
-3.73966e-29
-1.1804e-28
-6.21037e-28
-1.56637e-27
-7.12944e-27
-1.29437e-26
-5.10812e-26
-6.16942e-26
-2.11271e-25
-1.69005e-25
-5.01939e-25
-2.7124e-25
-6.9753e-25
-2.70062e-25
-5.99717e-25
-1.52282e-25
-2.90881e-25
-5.15929e-26
-8.43344e-26
-2.41469e-27
-3.35478e-27
2.96669e-25
2.47494e-26
4.37763e-24
3.6291e-25
3.63057e-23
3.47143e-24
1.4633e-23
5.74683e-22
-1.09863e-29
-5.19414e-28
-7.87047e-31
-2.29269e-29
-3.09133e-30
-6.37548e-29
-1.5493e-30
-2.44037e-29
-1.63615e-31
-2.04257e-30
-3.34034e-32
-3.41415e-31
-1.16036e-31
-9.90665e-31
-5.78937e-31
-4.18751e-30
-5.32726e-30
-3.29516e-29
-6.25546e-29
-3.33001e-28
-6.3344e-28
-2.91401e-27
-4.43843e-27
-1.76852e-26
-1.90702e-26
-6.58751e-26
-4.88551e-26
-1.4624e-25
-7.52743e-26
-1.94933e-25
-7.36229e-26
-1.64476e-25
-4.20292e-26
-8.06658e-26
-1.50191e-26
-2.46259e-26
-2.03375e-27
-2.82728e-27
1.84716e-26
1.14799e-27
3.11206e-25
2.08954e-26
3.29725e-24
2.72354e-25
5.99448e-25
2.00629e-23
-2.73082e-30
-1.23669e-28
-1.66637e-31
-4.91793e-30
-5.7403e-31
-1.223e-29
-2.93284e-31
-4.78732e-30
-3.27061e-32
-4.23806e-31
-1.03984e-32
-1.10405e-31
-5.00119e-32
-4.43435e-31
-2.91925e-31
-2.19121e-30
-2.45158e-30
-1.5717e-29
-2.38613e-29
-1.31464e-28
-2.0677e-28
-9.82913e-28
-1.29016e-27
-5.30366e-27
-5.11424e-27
-1.81969e-26
-1.23891e-26
-3.8138e-26
-1.83796e-26
-4.88704e-26
-1.75867e-26
-4.02685e-26
-1.00365e-26
-1.97025e-26
-3.65832e-27
-6.11904e-27
-6.65367e-28
-9.40246e-28
1.09856e-27
2.59287e-28
1.82157e-26
1.00633e-27
2.46606e-25
1.74945e-26
2.46864e-26
7.46005e-25
-6.29267e-31
-2.76295e-29
-3.35459e-32
-1.02237e-30
-9.83505e-32
-2.22159e-30
-5.09149e-32
-8.8523e-31
-5.95152e-33
-8.23981e-32
-2.84464e-33
-3.23191e-32
-1.66136e-32
-1.5765e-31
-1.04932e-31
-8.42447e-31
-8.37988e-31
-5.73942e-30
-7.29385e-30
-4.28634e-29
-5.66475e-29
-2.86698e-28
-3.23012e-28
-1.411e-27
-1.19779e-27
-4.51954e-27
-2.76163e-27
-8.99694e-27
-3.94819e-27
-1.10858e-26
-3.67963e-27
-8.87579e-27
-2.07545e-27
-4.28033e-27
-7.54156e-28
-1.32083e-27
-1.54602e-28
-2.27767e-28
9.03914e-29
1.42939e-29
8.64629e-28
4.08357e-29
1.29891e-26
7.91858e-28
8.05756e-28
2.49473e-26
-1.33568e-31
-5.80157e-30
-6.37557e-33
-2.05468e-31
-1.5547e-32
-3.83945e-31
-8.09799e-33
-1.54983e-31
-9.8484e-34
-1.5095e-32
-6.85182e-34
-8.63855e-33
-4.53893e-33
-4.78407e-32
-3.00659e-32
-2.6808e-31
-2.31673e-31
-1.76055e-30
-1.86132e-30
-1.21199e-29
-1.327e-29
-7.42937e-29
-7.0226e-29
-3.38727e-28
-2.45677e-28
-1.02164e-27
-5.40986e-28
-1.93849e-27
-7.4463e-28
-2.2946e-27
-6.72449e-28
-1.77594e-27
-3.70559e-28
-8.34473e-28
-1.31653e-28
-2.50957e-28
-2.80617e-29