/*--------------------------------*- C++ -*----------------------------------*\
| =========                 |                                                 |
| \\      /  F ield         | OpenFOAM: The Open Source CFD Toolbox           |
|  \\    /   O peration     | Version:  2206                                  |
|   \\  /    A nd           | Website:  www.openfoam.com                      |
|    \\/     M anipulation  |                                                 |
\*---------------------------------------------------------------------------*/
FoamFile
{
    version     2.0;
    format      ascii;
    arch        "LSB;label=32;scalar=64";
    class       volScalarField;
    location    "0.725";
    object      alpha.water;
}
// * * * * * * * * * * * * * * * * * * * * * * * * * * * * * * * * * * * * * //

dimensions      [0 0 0 0 0 0 0];

internalField   nonuniform List<scalar> 
2268
(
0.999999
0.999999
1
1
1
1
1
1
1
1
1
1
1
1
0.999999
0.999508
0.967574
0.942477
0.984845
0.998466
0.99856
0.99874
0.999074
0.999999
1
1
1
1
1
1
1
1
1
1
1
1
1
1
0.999979
0.978101
0.942041
0.93751
0.967544
0.968314
0.976065
0.999595
0.999999
1
1
1
1
1
1
1
1
1
1
1
1
1
1
0.999999
0.998571
0.969594
0.93762
0.93751
0.93762
0.967312
0.999605
1
1
1
1
1
1
1
1
1
1
1
1
1
1
1
1
0.999999
0.999774
0.988161
0.969821
0.95478
0.999944
0.999605
1
1
1
1
1
1
1
1
1
1
1
1
1
1
1
1
1
1
1
1
1
0.999946
0.999976
1
1
1
1
1
1
1
1
1
1
1
1
1
1
1
1
1
1
1
1
1
1
0.999977
1
1
1
1
1
1
1
0.999998
1
1
1
1
1
1
1
1
1
1
1
1
1
0.999998
0.999964
1
1
0.987746
0.97143
0.956933
0.956604
0.975619
1
1
1
1
1
1
1
1
1
1
1
1
1
1
0.999997
0.999971
0.347777
0.138393
0.13951
0.904186
0.904235
0.904235
0.90408
0.903377
0.896156
0.887349
0.882968
0.883634
0.88882
0.892243
0.894112
0.895941
0.897052
0.900299
0.857727
0.689215
0.145681
0.531075
0.904075
0.904235
0.751671
0.532405
0.492944
0.466992
0.453009
0.55256
0.647317
0.699349
0.734442
0.77417
0.817493
0.87834
0.913518
0.915505
0.694062
0.315401
0.80586
0.786407
0.186112
0.0548533
0.0359993
0.0399144
0.0441931
0.0562812
0.074358
0.136169
0.3067
0.341941
0.309279
0.309279
0.356021
0.577746
0.915505
0.694062
0.722316
0.750571
0.248814
0.0267036
0.0266305
0.0306628
0.0358316
0.0823572
0.23465
0.125379
0.128579
0.523133
0.739494
0.731927
0.431283
0.296307
0.29721
0.904543
0.694062
0.693672
0.630874
0.0267006
0.0217555
0.0244619
0.0266301
0.0652759
0.526236
0.736997
0.661769
0.584682
0.738276
0.743369
0.74407
0.744131
0.352831
0.294242
0.527499
0.693672
0.631553
0.131017
0.021132
0.020605
0.0217602
0.0244451
0.486425
0.737154
0.738285
0.737639
0.73735
0.697489
0.74407
0.744229
0.744131
0.513737
0.292521
0.292521
0.688065
0.629846
0.0224168
0.0186989
0.0199828
0.0206048
0.128575
0.735497
0.738283
0.738266
0.738299
0.715871
0.296008
0.496053
0.74407
0.744228
0.742009
0.302983
0.292176
0.678054
0.529446
0.0186989
0.0177533
0.0186989
0.0199695
0.561542
0.737434
0.738218
0.738289
0.738218
0.408702
0.0298951
0.116018
0.660082
0.74318
0.738678
0.360888
0.292949
0.387564
0.382904
0.39531
0.418998
0.476637
0.61007
0.788006
0.936249
0.999184
1
1
1
1
1
1
1
1
1
1
1
1
0.999998
0.999988
0.0101305
0.0226894
0.0383557
0.0689528
0.116982
0.185777
0.282316
0.418174
0.602656
0.790237
0.906801
0.965566
0.992176
1
1
1
0.999999
0.999998
0.999998
0.999998
0.999999
0.999996
0.999984
0.000123646
1.72932e-05
3.25627e-06
0.000182
0.00129852
0.00474322
0.0133498
0.0302693
0.0634111
0.135502
0.254552
0.382204
0.49099
0.603995
0.72475
0.815339
0.870418
0.932335
0.972644
0.988061
0.999501
0.999953
0.999956
1.72897e-05
2.10013e-06
3.19151e-07
6.53824e-07
2.10374e-08
1.27662e-09
1.37888e-09
1.32084e-08
1.00044e-07
4.38024e-07
1.5702e-06
5.38216e-06
2.11237e-05
0.0147073
0.0774987
0.154722
0.236827
0.326959
0.434613
0.555348
0.701174
0.804319
0.818859
2.09344e-06
3.57393e-07
8.54057e-08
3.7555e-08
1.28526e-09
9.27538e-10
4.4168e-10
1.37926e-09
8.30313e-09
4.98507e-08
4.36502e-07
1.56865e-06
5.44553e-06
7.23028e-06
-1.41555e-08
1.00754e-06
5.50643e-06
0.0131758
0.0694435
0.103025
0.111066
0.102639
0.0612679
6.45987e-07
4.55571e-07
3.93182e-08
5.0303e-09
1.01381e-09
7.72643e-10
4.0651e-10
2.56056e-09
3.10231e-09
9.88439e-09
4.98285e-08
9.07806e-06
3.11602e-05
1.18818e-05
1.46228e-07
3.88617e-07
1.41186e-06
5.6318e-06
2.27106e-05
9.03916e-05
0.00033326
0.00107227
0.00324443
8.95792e-08
1.63326e-07
2.34006e-08
1.19509e-09
1.84292e-10
1.35613e-10
1.25914e-10
4.82977e-09
3.85292e-08
4.03211e-08
4.40225e-08
1.17791e-05
3.06804e-05
2.68696e-05
1.05587e-07
1.29418e-07
6.38204e-07
5.86039e-06
4.67952e-05
0.000302612
0.00107199
0.00749261
0.184219
9.02377e-09
2.3673e-09
1.95024e-09
5.21092e-10
1.00075e-10
1.66228e-11
1.05284e-11
2.52068e-09
6.58728e-08
9.94353e-08
8.52881e-08
6.84293e-06
2.13797e-05
1.24354e-05
9.90338e-08
4.43947e-08
1.8191e-07
4.11115e-06
7.12299e-05
0.000698777
0.00444146
0.102614
0.507236
9.20228e-10
2.32695e-10
4.96538e-11
9.11131e-11
3.39577e-11
8.9508e-12
9.34695e-12
6.89849e-10
4.09626e-08
8.67856e-08
2.5357e-07
1.08067e-06
7.52306e-07
2.16306e-08
1.13697e-08
8.13075e-09
4.43946e-08
1.54977e-06
3.45233e-05
0.000344528
0.00204928
0.0945132
0.28625
1.33503e-10
3.34721e-11
1.73849e-11
9.52295e-12
6.07827e-12
6.89175e-12
9.7053e-12
1.37152e-10
6.01547e-09
3.6293e-08
1.96944e-07
8.32571e-08
6.25832e-08
1.40677e-09
9.73964e-10
1.40677e-09
7.26155e-09
1.04778e-06
9.9457e-06
8.56433e-05
0.00124788
0.0176462
0.0442665
1.8488e-11
7.99032e-12
3.00394e-12
1.01422e-12
1.99704e-12
5.81123e-12
9.8586e-12
3.33584e-11
7.84466e-11
2.82826e-09
2.64933e-08
3.0604e-09
2.32994e-08
1.34876e-09
8.67519e-10
9.73964e-10
4.73179e-07
1.62076e-06
1.09518e-06
7.20345e-06
7.62655e-05
0.000234158
0.00286936
5.03362e-12
1.04531e-12
2.61193e-13
1.66534e-13
1.092e-12
4.54537e-12
9.45333e-12
1.2324e-11
2.58277e-10
1.4489e-09
1.58117e-09
2.63482e-09
1.82829e-09
3.39173e-09
6.99813e-10
1.40464e-08
6.70951e-07
1.05106e-06
2.96209e-07
1.93268e-05
0.000157182
0.000230733
0.000225665
7.1989e-13
8.10977e-14
1.97101e-14
4.26531e-14
5.58524e-13
2.78459e-12
7.93628e-12
8.14881e-12
2.27575e-10
2.20259e-09
2.18657e-09
2.68156e-09
1.82829e-09
1.8745e-09
6.12808e-10
2.36216e-08
1.89155e-07
3.95592e-08
6.45753e-08
3.79659e-05
0.000317055
0.000315377
0.000218983
6.64942e-14
6.30347e-15
1.58922e-15
1.24201e-14
2.04984e-13
1.19205e-12
5.4663e-12
7.8374e-12
1.30517e-10
2.18575e-09
2.81349e-09
3.04133e-09
1.83853e-09
3.28674e-10
6.08526e-10
9.37527e-09
1.00766e-09
1.00544e-08
1.62926e-08
4.13768e-05
0.000261978
0.000229794
0.000218625
6.35945e-15
5.04172e-16
1.27452e-16
3.09414e-15
5.03585e-14
3.69553e-13
3.28149e-12
7.68258e-12
4.9277e-11
1.3941e-09
2.44053e-09
3.07211e-09
1.57756e-09
2.70116e-11
1.95492e-10
3.93531e-10
4.02936e-10
1.00766e-09
1.16726e-06
2.07722e-05
2.2086e-05
3.04798e-05
0.000134131
6.07779e-16
3.56784e-17
7.77775e-18
5.8251e-16
9.32532e-15
1.00198e-13
1.84319e-12
7.02318e-12
1.63589e-11
3.90849e-10
1.23738e-09
2.28967e-09
7.36813e-10
3.23536e-12
1.87429e-11
9.81803e-12
4.30073e-11
1.17651e-08
5.17854e-07
4.22522e-07
1.80108e-06
1.69434e-05
0.00189656
5.49134e-17
8.84182e-19
1.55311e-19
8.34192e-17
1.50887e-15
2.72595e-14
9.04212e-13
5.19325e-12
7.15489e-12
4.60887e-11
2.72222e-10
7.77652e-10
1.31448e-10
9.90669e-13
1.84362e-12
3.65554e-12
4.4456e-11
2.93648e-09
3.3769e-09
4.68412e-08
7.10031e-07
0.000127417
0.00378914
3.67908e-18
-1.05812e-18
-1.80056e-18
9.07086e-18
2.20854e-16
7.18367e-15
3.34048e-13
2.62601e-12
3.56655e-12
5.39072e-12
2.78057e-11
9.83547e-11
1.04134e-11
3.86364e-13
4.19256e-13
1.16922e-12
1.60528e-11
5.20352e-11
4.76791e-10
1.14781e-08
2.777e-07
0.000255197
0.00164066
7.83485e-20
-2.7106e-18
-2.84367e-18
4.8724e-19
2.87737e-17
1.67542e-15
8.28682e-14
7.99869e-13
1.48898e-12
1.38677e-12
2.89354e-12
7.19118e-12
9.07987e-13
1.25369e-13
9.94159e-14
2.49244e-13
5.58734e-12
7.03598e-12
7.64371e-11
2.50737e-09
3.82273e-06
0.000120596
1.78127e-05
-7.96886e-19
-1.99633e-18
-2.48697e-18
0
3.3897e-18
3.26796e-16
1.3936e-14
1.45228e-13
4.20376e-13
4.76203e-13
5.71006e-13
6.87339e-13
1.27562e-13
2.78675e-14
1.63809e-14
3.40278e-14
9.76654e-13
8.68973e-12
1.6798e-11
6.86191e-09
1.04095e-06
6.89998e-07
8.3215e-06
-1.00871e-18
-1.16556e-18
-1.73948e-18
-5.73216e-20
3.70854e-19
5.25502e-17
1.8462e-15
1.88624e-14
7.65984e-14
1.37358e-13
1.47145e-13
9.67243e-14
2.32963e-14
4.47583e-15
1.85881e-15
3.77451e-15
1.0995e-13
2.77654e-12
3.11679e-11
1.14138e-09
8.69632e-09
7.88858e-08
9.17692e-07
-7.2682e-19
-5.98551e-19
-1.04368e-18
-9.61679e-20
2.74745e-20
7.05033e-18
2.26557e-16
2.29268e-15
1.0568e-14
2.65356e-14
3.15761e-14
1.62468e-14
4.65017e-15
7.23753e-16
1.87682e-16
3.81836e-16
1.08705e-14
2.91955e-13
9.59214e-12
1.22553e-11
2.12568e-10
7.88311e-09
1.06351e-07
-4.39966e-19
-2.77274e-19
-5.51432e-19
-7.84344e-20
1.09582e-23
8.08978e-19
2.70764e-17
2.88896e-16
1.33918e-15
3.43942e-15
4.62867e-15
2.57163e-15
8.76807e-16
1.33729e-16
1.90499e-17
3.71201e-17
1.0909e-15
3.0369e-14
1.03279e-12
2.02814e-12
1.97039e-11
8.71822e-10
5.09987e-08
-2.39379e-19
-1.16896e-19
-2.60097e-19
-4.79999e-20
0
8.10201e-20
3.04389e-18
3.53948e-17
1.60865e-16
3.63545e-16
4.97192e-16
3.387e-16
1.35292e-16
2.18299e-17
1.20392e-18
2.61717e-18
1.07775e-16
3.28165e-15
1.13196e-13
1.80043e-12
3.13495e-12
9.30074e-11
1.46993e-09
-1.19243e-19
-4.50811e-20
-1.10488e-19
-2.43131e-20
-4.35591e-22
7.23476e-21
3.06647e-19
3.85758e-18
1.72852e-17
3.61611e-17
4.78629e-17
3.69749e-17
1.58966e-17
2.11408e-18
2.75334e-20
4.02462e-20
8.92003e-18
3.28295e-16
1.10783e-14
3.39822e-13
4.71993e-13
9.611e-12
1.65392e-10
-5.47356e-20
-1.59766e-20
-4.25481e-20
-1.06271e-20
-3.37301e-22
5.84007e-22
2.72969e-20
3.60538e-19
1.61616e-18
3.36961e-18
4.4249e-18
3.4864e-18
1.35598e-18
5.55801e-20
-6.95582e-19
-4.04722e-19
2.68653e-19
2.98738e-17
9.82514e-16
2.45889e-14
2.5433e-13
1.09999e-12
1.68543e-11
-2.32272e-20
-5.22863e-21
-1.49344e-20
-4.10279e-21
-1.70351e-22
3.55684e-23
2.21515e-21
2.97988e-20
1.35181e-19
2.8808e-19
3.79144e-19
2.81899e-19
3.8224e-20
-1.87431e-19
-9.40313e-19
-7.40313e-19
0
2.3941e-18
8.31691e-17
1.78014e-15
4.28937e-14
1.08435e-13
1.47578e-12
-9.13369e-21
-1.5887e-21
-4.80086e-21
-1.42047e-21
-6.99655e-23
1.77793e-25
1.71129e-22
2.30291e-21
1.0579e-20
2.28728e-20
2.88791e-20
1.29823e-20
9.62965e-37
-3.17608e-19
-7.5134e-19
-6.34845e-19
-1.1175e-19
4.97251e-20
6.90766e-18
1.43584e-16
2.37375e-15
7.59839e-15
1.11674e-13
-3.33549e-21
-4.50867e-22
-1.41962e-21
-4.45867e-22
-2.49391e-23
0
1.27052e-23
1.70865e-22
7.89214e-22
1.67379e-21
1.54859e-21
2.19993e-22
-4.60102e-20
-2.46012e-19
-4.62424e-19
-4.03181e-19
-1.34255e-19
0
5.96733e-19
1.40079e-17
1.75595e-16
8.01414e-16
1.05781e-14
-1.13357e-21
-1.20313e-22
-3.87719e-22
-1.27944e-22
-7.93946e-24
-5.73827e-26
8.0713e-25
1.18859e-23
5.41277e-23
9.00468e-23
2.35398e-23
-3.53308e-21
-3.95381e-20
-1.40236e-19
-2.3481e-19
-2.07894e-19
-8.5299e-20
-5.01771e-21
4.92606e-20
1.747e-18
2.2179e-17
1.15003e-16
7.2201e-16
-3.59223e-22
-3.04096e-23
-9.81801e-23
-3.37889e-23
-2.29279e-24
-7.00165e-26
1.89653e-26
6.3099e-25
2.33347e-24
1.35157e-24
-1.68651e-22
-3.59639e-21
-2.21354e-20
-6.50961e-20
-1.01425e-19
-9.03058e-20
-4.11166e-20
-8.22194e-21
5.00903e-22
2.52492e-19
3.25383e-18
2.05755e-17
5.6758e-17
-1.06337e-22
-7.3346e-24
-2.31378e-23
-8.25827e-24
-6.0649e-25
-3.64889e-26
0
8.37205e-27
3.60677e-26
-8.01511e-24
-2.10676e-22
-2.02114e-21
-9.78474e-21
-2.56569e-20
-3.79593e-20
-3.3742e-20
-1.63117e-20
-4.34715e-21
0
3.232e-20
4.14766e-19
3.18396e-18
5.39914e-18
-2.94494e-23
-1.69942e-24
-5.09371e-24
-1.87696e-24
-1.47959e-25
-1.53026e-26
-2.27686e-26
-5.40374e-26
-6.1558e-25
-1.03084e-23
-1.19527e-22
-8.66695e-22
-3.63635e-21
-8.78974e-21
-1.24734e-20
-1.10024e-20
-5.50774e-21
-1.66068e-21
-6.93802e-23
2.72007e-21
3.97869e-20
3.88505e-19
4.4604e-19
-7.64064e-24
-3.80125e-25
-1.05152e-24
-3.98429e-25
-3.34693e-26
-5.62015e-27
-1.64057e-26
-6.98452e-26
-5.54453e-25
-5.66263e-24
-5.01802e-23
-3.09157e-22
-1.17236e-21
-2.659e-21
-3.63695e-21
-3.166e-21
-1.61298e-21
-5.15944e-22
-6.27525e-23
1.28629e-22
2.87246e-21
3.84049e-20
5.61636e-20
-1.85936e-24
-8.22972e-26
-2.04355e-25
-7.93115e-26
-7.05301e-27
-1.84756e-27
-7.47493e-27
-3.72592e-26
-2.701e-25
-2.28812e-24
-1.73678e-23
-9.54103e-23
-3.34391e-22
-7.18814e-22
-9.49411e-22
-8.11323e-22
-4.14844e-22
-1.35941e-22
-2.23109e-23
2.84899e-41
1.65956e-22
3.23557e-21
4.89344e-21
-4.2487e-25
-1.72425e-26
-3.7544e-26
-1.48641e-26
-1.39103e-27
-5.49128e-28
-2.70163e-27
-1.45842e-26
-1.00596e-25
-7.62437e-25
-5.18958e-24
-2.6074e-23
-8.55806e-23
-1.75362e-22
-2.23644e-22
-1.86595e-22
-9.45609e-23
-3.09881e-23
-5.75167e-24
2.93874e-41
7.88889e-24
1.99526e-22
2.56126e-22
-9.12667e-26
-3.48671e-27
-6.54887e-27
-2.63335e-27
-2.5806e-28
-1.48771e-28
-8.3196e-28
-4.716e-27
-3.14085e-26
-2.19847e-25
-1.37438e-24
-6.41289e-24
-1.98761e-23
-3.89454e-23
-4.78922e-23
-3.87923e-23
-1.92497e-23
-6.18371e-24
-1.1968e-24
-1.79997e-26
2.96122e-25
8.44994e-24
9.61037e-24
-1.84561e-26
-6.77826e-28
-1.08939e-27
-4.42852e-28
-4.5291e-29
-3.70327e-29
-2.26164e-28
-1.32429e-27
-8.57467e-27
-5.63748e-26
-3.28424e-25
-1.43754e-24
-4.23029e-24
-7.93846e-24
-9.39293e-24
-7.34381e-24
-3.52661e-24
-1.09046e-24
-2.09338e-25
-1.15006e-26
9.06143e-27
2.64279e-25
3.5941e-25
-3.51991e-27
-1.26168e-28
-1.73583e-28
-7.09966e-29
-7.56812e-30
-8.53553e-30
-5.54799e-29
-3.32137e-28
-2.09863e-27
-1.30945e-26
-7.17829e-26
-2.96832e-25
-8.32447e-25
-1.4971e-24
-1.70027e-24
-1.27611e-24
-5.86486e-25
-1.71634e-25
-3.1519e-26
-2.25557e-27
1.63064e-28
6.24638e-27
2.60726e-26
-6.34664e-28
-2.23736e-29
-2.66037e-29
-1.08966e-29
-1.21221e-30
-1.83491e-30
-1.24734e-29
-7.58026e-29
-4.68464e-28
-2.79341e-27
-1.45102e-26
-5.69829e-26
-1.52708e-25
-2.63263e-25
-2.86316e-25
-2.0528e-25
-8.93936e-26
-2.43819e-26
-4.16274e-27
-3.13457e-28
3.67215e-47
1.62722e-28
2.95695e-27
-1.08562e-28
-3.7771e-30
-3.9359e-30
-1.60773e-30
-1.8744e-31
-3.7035e-31
-2.6006e-30
-1.59586e-29
-9.66094e-29
-5.53279e-28
-2.73773e-27
-1.0252e-26
-2.63097e-26
-4.3485e-26
-4.5204e-26
-3.08394e-26
-1.26185e-26
-3.16514e-27
-4.90924e-28
-3.5217e-29
-5.56093e-47
4.83359e-30
1.78664e-28
-1.76877e-29
-5.98517e-31
-5.63766e-31
-2.28741e-31
-2.80536e-32
-7.06304e-32
-5.07915e-31
-3.13484e-30
-1.86129e-29
-1.02777e-28
-4.86527e-28
-1.74307e-27
-4.29077e-27
-6.79834e-27
-6.74023e-27
-4.35621e-27
-1.65746e-27
-3.75483e-28
-5.12959e-29
-3.17646e-30
-8.81155e-34
7.01665e-32
2.54109e-30
0.999904
0.999909
0.999069
0.868974
0.999936
0.999929
0.999715
0.763116
0.999929
0.999715
0.99944
0.735425
0.805535
0.827109
0.961332
0.795075
0.0485468
0.103511
0.379481
0.765142
0.0161032
0.193882
0.643375
0.769148
0.581829
0.766575
0.769148
0.768537
0.591404
0.567195
0.164111
0.098491
0.302071
0.0764231
0.00555994
0.00568447
0.0549883
0.0404965
0.00492144
0.00466594
0.0167213
0.0249763
0.00461228
0.00452939
0.00228122
0.0386471
0.0111692
0.00450545
0.000225665
0.0491207
0.071618
0.00450586
0.00205843
0.0633844
0.0743164
0.00460655
0.0327345
0.0744476
0.074449
0.0632862
0.0248788
0.0366095
0.0394734
0.0186962
0.00513275
0.000309557
0.000438396
0.00245292
8.51075e-05
0.000147854
0.00251491
0.0478693
6.7552e-05
8.51075e-05
0.0195813
0.0601858
1.78127e-05
0.00177365
0.0530572
0.0601858
8.92239e-05
0.0256959
0.0518617
0.0434706
0.000666619
0.0387971
0.0500664
0.000227019
0.00086912
0.0139257
0.00740651
7.22912e-05
0.00021661
0.000101391
7.28141e-05
6.43918e-05
3.78875e-08
8.16787e-06
2.55787e-05
2.30944e-06
3.77271e-09
5.48593e-07
2.32924e-06
4.26701e-07
3.16675e-10
2.91364e-08
6.94724e-08
1.77239e-08
2.27161e-11
1.27896e-09
2.12568e-09
7.77732e-10
1.89019e-12
5.28877e-11
1.07619e-10
5.89422e-11
1.02327e-13
2.53963e-12
1.32161e-11
9.39214e-12
9.76259e-15
1.67905e-13
1.04779e-12
9.03504e-13
2.29472e-15
2.84868e-14
1.88444e-13
1.15227e-13
6.21305e-16
6.46268e-15
3.89856e-14
1.12275e-13
9.13838e-17
8.20758e-16
1.27227e-14
2.2151e-13
3.50931e-18
5.95487e-17
4.19122e-15
6.71685e-14
2.87779e-20
3.55735e-18
6.281e-16
1.8768e-14
6.69195e-22
1.0298e-19
7.56131e-17
2.42087e-15
4.55254e-23
9.08876e-22
1.76932e-17
2.63493e-16
1.61109e-24
5.13485e-23
2.83657e-18
4.96171e-17
3.41436e-26
2.78786e-24
2.33029e-19
2.2992e-17
5.28295e-28
5.6184e-25
1.02645e-20
8.80648e-19
5.95036e-30
2.93472e-26
1.53716e-23
2.34509e-22
0.56388
0.0795556
0.0175172
0.0177533
0.0177533
0.237368
0.734618
0.736131
0.737434
0.738218
0.737145
0.15577
0.0125744
0.0184122
0.386856
0.738678
0.734521
0.393245
0.343909
0.362048
0.01785
0.017281
0.0175172
0.127929
0.719486
0.731651
0.734884
0.736131
0.737147
0.54627
0.0338747
0.0107243
0.0210253
0.028588
0.128725
0.656359
0.603592
0.367842
0.0392548
0.0174211
0.0174211
0.0225019
0.63967
0.729204
0.730276
0.731605
0.701586
0.711836
0.313576
0.00860547
0.00844978
0.00880948
0.0105989
0.0130278
0.405013
0.588715
0.235724
0.0441021
0.0274011
0.0693481
0.489445
0.723054
0.728449
0.727303
0.621834
0.289877
0.320021
0.150526
0.00845075
0.00880948
0.0166809
0.0280781
0.0260449
0.41134
0.569505
0.235724
0.522744
0.597691
0.711855
0.749497
0.661783
0.65984
0.570331
0.44959
0.246286
0.168539
0.125318
0.0277209
0.053016
0.283359
0.338375
0.0774229
0.209877
0.389119
0.284255
0.768537
0.762744
0.757562
0.757562
0.484816
0.0884433
0.0773618
0.466166
0.589905
0.475834
0.326134
0.240348
0.298608
0.424247
0.42425
0.319293
0.0440132
0.0537103
0.703611
0.745033
0.630483
0.69775
0.678951
0.203855
0.00540053
0.057655
0.494151
0.597169
0.597169
0.597169
0.569497
0.327964
0.293107
0.416304
0.246346
0.0440132
0.0440132
0.8488
0.119149
0.132231
0.183945
0.241823
0.0270959
0.00111377
0.00210033
0.143032
0.531218
0.597169
0.593007
0.586985
0.419477
0.145598
0.128243
0.113762
0.1024
0.256967
0.918186
0.0179755
0.124094
0.156215
0.00733179
0.00111378
0.000495981
0.000112645
0.000503638
0.0102474
0.407975
0.562924
0.57573
0.566335
0.566335
0.348057
0.419552
0.627279
0.817669
0.918203
0.00733481
0.0913827
0.154278
0.0635611
0.000656542
0.000152159
5.92019e-06
1.04141e-06
-5.66309e-06
-1.33028e-05
0.0105162
0.291383
0.450022
0.524359
0.61732
0.637529
0.68801
0.829464
0.916772
0.00466594
0.0304227
0.140844
0.101098
0.000215407
4.77531e-06
1.91789e-06
1.70479e-06
1.36682e-06
1.01481e-06
7.41707e-07
8.289e-07
2.64508e-06
1.18968e-05
5.25009e-05
0.000248313
0.00129291
0.177218
0.554759
0.00452939
0.0259187
0.135716
0.125593
0.0208005
1.52276e-06
1.67632e-06
1.59347e-06
1.07052e-06
8.14363e-07
5.87349e-07
2.78133e-07
1.26415e-07
4.8477e-08
3.23802e-08
1.83313e-05
0.0002271
0.00128169
0.0075164
0.00458396
0.0853841
0.13524
0.132736
0.00913758
2.50778e-06
2.21588e-06
2.35498e-06
3.93507e-06
1.34559e-06
5.37474e-07
1.45449e-07
4.84844e-08
3.26577e-08
3.29374e-08
-9.20041e-08
-5.80868e-06
0.0185773
0.040003
0.0139781
0.119999
0.13524
0.0793386
2.79995e-05
2.71888e-06
2.57022e-06
2.72246e-06
1.07392e-05
1.10062e-05
1.20212e-06
8.22576e-07
4.7401e-07
5.74106e-08
2.36304e-08
-1.39348e-09
-9.88173e-08
0.0456956
0.0807016
0.0312284
0.128061
0.132716
0.0350815
1.07738e-05
2.99325e-06
2.72031e-06
3.10134e-06
3.90054e-06
1.46523e-05
1.74814e-06
1.45408e-06
1.02075e-06
3.20216e-07
2.3582e-08
-6.14017e-09
-8.28391e-09
0.00694635
0.0809321
0.0647712
0.126453
0.103387
0.00934466
5.59667e-06
3.21994e-06
3.06517e-06
3.5675e-06
1.01963e-05
1.52838e-05
2.43878e-06
7.95538e-07
4.26322e-07
3.39311e-07
9.4492e-08
1.71967e-07
-1.07491e-14
0.000259442
0.080654
0.0863528
0.101688
3.52375e-05
0.000390657
3.91911e-05
3.52984e-06
3.22026e-06
3.52999e-06
3.08201e-05
1.58238e-05
2.03103e-06
1.04583e-06
7.54535e-07
4.26322e-07
4.26946e-07
1.33076e-06
5.26267e-07
3.50307e-06
0.0794758
0.0501266
2.53998e-05
2.64574e-05
3.38883e-05
4.08817e-05
3.97846e-06
4.0124e-06
1.71132e-05
3.28319e-05
7.70804e-06
2.49617e-06
1.77869e-06
4.68258e-06
1.3216e-06
1.98985e-06
7.69378e-06
3.50304e-06
1.85562e-05
0.0704024
0.0383914
2.59112e-05
2.53989e-05
2.64574e-05
3.70411e-05
4.34091e-05
4.48634e-05
4.48634e-05
3.36969e-05
7.14212e-07
1.4987e-06
4.45165e-05
8.48245e-05
8.01506e-06
8.32953e-06
4.1691e-05
1.85526e-05
4.06833e-05
0.0337342
0.00650065
2.5399e-05
3.4456e-05
3.29076e-05
1.15713e-05
1.19504e-05
2.00882e-06
2.5164e-07
1.29088e-08
1.55735e-08
6.16943e-06
0.000123645
0.000126451
1.9129e-05
0.000152574
0.00191182
0.00020233
0.000261872
0.0378125
5.95416e-05
5.99716e-05
2.54079e-05
1.55733e-06
6.89114e-09
7.65183e-09
8.31272e-09
8.82289e-09
9.91544e-09
1.29088e-08
2.96037e-05
0.000126451
0.000129873
3.00943e-05
0.001576
0.00538398
0.00345222
0.00256335
0.0554431
5.94174e-05
5.57481e-05
1.86377e-05
9.33338e-09
5.02612e-09
7.36633e-09
7.98409e-09
8.98102e-09
1.24111e-08
1.55735e-08
1.47907e-05
0.000100384
0.000132542
0.000159843
0.00484531
0.00539224
0.00538398
0.00443825
0.0555483
8.45752e-05
7.88555e-06
2.02576e-08
3.17639e-09
2.98139e-09
6.47569e-09
6.80779e-09
1.49071e-07
3.11299e-07
1.4927e-07
1.13445e-07
2.36507e-05
0.000112465
0.000447832
0.00539887
0.00539887
0.00451526
0.0044326
0.0551402
6.55316e-06
5.57776e-08
5.75114e-09
5.92323e-10
1.49852e-09
1.95702e-09
4.00434e-07
5.94365e-06
5.97518e-06
7.1639e-07
1.11375e-07
7.71514e-06
6.82625e-05
0.000623331
0.00540032
0.00379471
0.000102126
0.00178543
0.0335262
4.81198e-08
5.45798e-09
5.6817e-10
1.55667e-10
6.49719e-10
1.18051e-09
6.67062e-06
8.53968e-06
8.53764e-06
7.94877e-07
1.43096e-07
1.1624e-05
4.09753e-05
0.000652713
0.00474536
3.79981e-05
2.33589e-06
0.000220079
0.000254541
2.00204e-09
2.61415e-10
5.93407e-11
4.08506e-11
8.35975e-11
3.9725e-06
8.76575e-06
8.65067e-06
2.70093e-06
3.13989e-07
2.56918e-07
4.70782e-05
4.43897e-05
0.00106386
0.000170659
1.94044e-06
2.33589e-06
2.33589e-06
0.0620655
1.17523e-10
3.04089e-11
4.07473e-11
4.08506e-11
3.92598e-07
8.635e-06
8.76575e-06
6.75497e-06
1.79945e-07
2.16431e-07
1.80647e-06
8.53814e-05
8.33765e-05
0.00136114
5.59771e-05
1.25656e-06
1.94044e-06
0.000129223
0.104562
3.3793e-11
2.56561e-11
3.37949e-11
4.07468e-11
5.91278e-06
8.56195e-06
8.67091e-06
6.55104e-07
1.41503e-08
6.81406e-08
5.52142e-05
0.000100389
0.000106105
0.00136114
0.000101484
9.68118e-07
1.53524e-06
0.000649469
0.104623
3.18193e-11
7.62626e-12
2.93155e-10
5.52631e-11
3.63021e-06
5.02642e-06
4.37914e-07
1.00772e-08
1.06099e-08
1.91544e-06
9.91821e-05
9.50017e-05
0.000473139
0.000895585
9.68118e-07
9.68118e-07
9.68109e-07
0.00178143
0.104623
5.30792e-12
1.47358e-12
1.87756e-08
1.44023e-07
2.52634e-09
1.0348e-09
2.43774e-09
7.57657e-09
1.00772e-08
3.25182e-05
5.77772e-05
0.000263631
0.000998516
1.12794e-06
9.69366e-07
9.68118e-07
9.83132e-07
0.0026191
0.104623
9.40301e-13
9.81461e-13
1.22479e-08
3.51411e-08
1.83991e-08
7.74255e-11
1.15684e-07
1.71786e-08
1.06099e-08
4.50197e-05
5.33568e-05
0.000384189
0.000995651
1.24334e-06
1.14701e-06
9.83133e-07
1.16073e-06
0.00313477
0.10434
1.27096e-11
6.81324e-10
5.52532e-10
2.36466e-12
1.11714e-12
7.74363e-11
2.44174e-07
2.39073e-08
1.25337e-08
4.00562e-05
8.07004e-05
0.000703913
0.000559162
1.59057e-06
2.08177e-06
1.38446e-06
2.59385e-06
0.00347202
0.10201
1.16738e-11
4.38767e-11
2.24657e-11
1.89155e-12
9.84075e-13
1.11714e-12
4.63726e-08
1.64862e-06
2.31744e-08
5.30966e-06
0.0001864
0.0015013
0.0004203
4.31094e-05
0.000140921
7.29182e-06
1.78489e-06
0.00337476
0.0269859
8.63901e-13
1.5756e-12
1.55766e-12
9.45965e-13
8.85085e-13
9.84075e-13
2.7708e-09
1.92096e-05
7.97834e-06
7.06528e-06
0.000136013
0.00155936
0.00155919
0.00115756
0.000532109
9.10201e-06
1.11458e-06
0.000545869
2.02613e-09
2.20689e-13
2.73753e-13
2.12971e-13
2.18438e-14
2.89575e-14
1.3763e-12
4.7752e-08
4.80291e-05
2.89687e-05
9.10207e-06
1.01611e-05
0.0012696
0.00155987
0.00154908
0.000748721
1.74581e-06
2.44883e-07
2.2691e-09
1.17056e-09
2.64434e-14
2.18538e-14
1.71591e-14
1.92842e-14
2.10861e-14
2.23888e-11
3.548e-05
5.73026e-05
5.73463e-05
1.48928e-05
1.45728e-05
2.03797e-05
0.00132182
0.0015447
0.000364532
1.333e-06
6.91042e-08
1.93017e-09
2.21163e-10
3.84874e-15
3.41754e-15
3.43344e-15
1.30724e-14
-3.89803e-13
2.131e-05
5.73027e-05
5.73711e-05
5.73409e-05
3.75851e-05
1.74433e-05
1.80664e-05
0.000320285
0.000175197
3.09578e-07
3.73364e-08
3.18768e-09
1.68784e-10
4.82624e-12
9.94921e-16
1.57039e-15
5.59282e-13
6.32866e-14
7.76265e-13
2.91131e-05
5.7165e-05
5.73398e-05
5.73711e-05
5.73398e-05
3.53812e-05
1.64086e-05
2.12039e-06
3.1236e-07
3.72912e-08
2.6269e-09
1.67161e-10
4.82624e-12
5.8287e-13
3.78653e-16
5.62004e-16
2.09519e-11
7.78247e-13
1.32425e-07
1.61265e-06
4.35126e-05
5.55796e-05
5.73398e-05
5.71386e-05
5.69701e-05
2.92207e-05
3.67632e-07
4.36334e-08
5.00887e-09
3.83337e-10
-8.0607e-12
5.38726e-13
1.63095e-13
1.56334e-17
1.66574e-18
1.07895e-10
3.66597e-10
1.02446e-16
8.60583e-09
1.13431e-12
5.10331e-06
1.18357e-05
3.47604e-05
4.16864e-05
1.48389e-05
7.70982e-07
7.43501e-07
1.02186e-07
2.73669e-10
8.24856e-12
-1.36798e-12
4.92558e-15
8.16016e-20
8.32365e-20
1.49929e-10
9.03552e-10
3.39309e-18
7.67234e-16
1.4537e-14
1.13431e-12
4.91891e-11
-3.26002e-22
1.90825e-06
1.46106e-06
1.70239e-06
7.00234e-07
4.9474e-11
-9.40946e-12
-2.40752e-13
-4.32853e-15
2.21603e-19
9.60567e-22
1.10425e-15
5.80947e-30
8.94983e-18
-2.67258e-38
2.24631e-31
3.36235e-13
2.7658e-10
1.01455e-09
1.45383e-31
-3.58713e-46
5.20559e-07
3.89937e-07
-3.65926e-14
-6.87376e-14
-5.92448e-15
-2.61904e-17
-1.38195e-19
0
)
;

boundaryField
{
    leftWall
    {
        type            zeroGradient;
    }
    rightWall
    {
        type            zeroGradient;
    }
    lowerWall
    {
        type            zeroGradient;
    }
    atmosphere
    {
        type            inletOutlet;
        inletValue      uniform 0;
        value           nonuniform List<scalar> 
46
(
-1.76877e-29
-5.98517e-31
-5.63766e-31
-2.28741e-31
-2.80536e-32
-7.06304e-32
-5.07915e-31
-3.13484e-30
-1.86129e-29
-1.02777e-28
-4.86527e-28
-1.74307e-27
-4.29077e-27
-6.79834e-27
-6.74023e-27
-4.35621e-27
-1.65746e-27
-3.75483e-28
-5.12959e-29
-3.17646e-30
-8.81155e-34
7.01665e-32
2.54109e-30
5.95036e-30
2.93472e-26
0
0
0
0
0
0
0
0
0
0
0
0
0
0
0
0
0
0
0
0
0
)
;
    }
    defaultFaces
    {
        type            empty;
    }
}


// ************************************************************************* //
