/*--------------------------------*- C++ -*----------------------------------*\
| =========                 |                                                 |
| \\      /  F ield         | OpenFOAM: The Open Source CFD Toolbox           |
|  \\    /   O peration     | Version:  2206                                  |
|   \\  /    A nd           | Website:  www.openfoam.com                      |
|    \\/     M anipulation  |                                                 |
\*---------------------------------------------------------------------------*/
FoamFile
{
    version     2.0;
    format      ascii;
    arch        "LSB;label=32;scalar=64";
    class       volScalarField;
    location    "0.725";
    object      p;
}
// * * * * * * * * * * * * * * * * * * * * * * * * * * * * * * * * * * * * * //

dimensions      [1 -1 -2 0 0 0 0];

internalField   nonuniform List<scalar> 
2268
(
532.414
532.848
535.657
541.525
552.553
570.695
595.039
621.078
645.983
669.823
692.886
715.115
736.356
756.379
774.876
791.544
804.541
812.378
815.7
823.48
845.807
876.462
886.705
472.743
472.659
475.358
481.068
491.754
510.198
535.341
561.997
587.193
611.153
634.278
656.516
677.765
697.875
716.466
733.645
749.015
757.492
757.004
759.768
780.72
809.664
822.772
410.917
410.609
413.69
419.406
429.57
448.23
474.615
502.662
528.509
552.61
575.743
597.929
619.06
639.053
657.696
675.086
691.106
700.786
700.823
703.829
721.831
745.67
757.441
347.578
347.212
350.808
356.378
365.673
384.087
413.031
443.351
470.158
494.39
517.485
539.621
560.666
580.549
599.194
616.645
632.573
643.667
647.501
652.642
668.46
685.421
692.252
283.582
282.978
286.977
292.4
301.283
320.205
352.076
384.724
412.336
436.562
459.552
481.609
502.581
522.409
541.099
558.694
574.932
587.871
596.505
603.791
616.907
627.089
627.998
219.407
218.256
222.546
228.019
237.529
256.87
292.826
326.897
354.929
379.106
401.932
423.863
444.737
464.516
483.282
501.088
517.782
532.361
543.612
552.474
563.72
569.44
563.218
155.003
154.124
157.971
164.044
175.074
198.112
233.664
268.976
297.234
321.674
344.611
366.45
387.175
406.845
425.643
443.604
460.605
476.165
488.921
499.318
509.922
512.238
494.504
89.7812
89.8987
93.6216
100.461
113.461
138.782
175.674
210.96
239.196
264.024
287.335
309.183
329.755
349.338
368.195
386.312
403.543
419.995
433.839
445.33
456.002
456.546
425.89
1025.27
910.107
930.031
937.255
838.456
674.661
565.842
578.459
699.812
871.131
946.19
969.189
983.937
948.771
878.82
835.019
847.203
912.115
972.635
948.809
867.912
911.083
836.328
642.572
453.836
419.483
492.048
646.881
840.035
910.564
915.306
935.253
897.148
798.997
735.496
737.33
824.32
917.602
904.3
829.366
837.155
602.208
425.021
386.555
396.331
459.802
605.348
800.621
891.778
885.943
871.653
845.071
793.194
705.416
653.014
700.071
835.194
927.983
805.174
656.631
416.348
357.287
354.932
377.319
443.235
571.343
763.963
859.104
847.117
791.08
753.516
716.407
653.822
635.214
662.136
750.044
980.741
762.73
477.209
350.08
329.969
337.025
361.999
420.01
526.269
669.66
754.342
727.055
588.372
536.062
566.479
585.523
624.809
663.845
705.551
951.308
654.412
383.303
322.032
316.584
325.68
350.733
381.73
453.433
522
538.042
455.399
308.353
318.255
424.976
506.06
590.618
666.283
694.717
819.09
503.102
338.127
306.702
307.02
316.512
337.003
351.455
372.797
385.799
353.468
228.628
121.989
145.131
289.508
416.841
528.985
645.215
678.83
588.455
380.837
310.586
298.116
299.95
310.222
313.916
315.607
301.094
278.689
228.594
114.886
88.1174
97.4612
184.778
329.326
457.463
609.38
647.394
26.6112
28.4356
32.726
39.8077
50.1661
66.1074
89.9794
118.43
146.67
173.46
198.08
220.18
240.301
259.533
278.411
296.834
315.124
332.294
347.471
360.262
371.164
375.537
372.066
3.25049
2.54336
2.97684
4.58782
7.82213
12.8835
20.536
31.404
45.7926
63.6029
83.8244
103.14
120.631
138.673
157.349
174.809
193.099
212.682
231.216
245.678
256.104
262.581
270.123
1.20977
0.860201
0.702533
0.485168
0.345635
0.497805
1.12518
2.25064
4.27661
8.62464
16.049
24.4882
32.3747
41.2999
52.7381
68.3579
85.8595
106.38
127.063
140.589
146.667
149.181
151.005
0.5279
0.297353
0.241843
0.130735
0.0641781
0.0983478
0.185708
0.237565
0.249795
0.227445
0.164729
0.0392249
-0.176713
0.0682774
3.15099
8.79242
16.4096
30.2225
47.4255
53.4391
52.9338
51.0262
43.0174
0.246747
-0.0606611
-0.0376825
-0.108171
-0.136379
-0.119096
-0.0427699
0.0416287
0.0529372
0.0095885
-0.0552491
-0.174698
-0.398449
-0.690858
-0.928754
-0.94092
-0.587696
0.885421
4.76005
6.44207
4.37213
-1.54693
-14.619
0.0281494
-0.175823
-0.196708
-0.235441
-0.236265
-0.206797
-0.16163
-0.133748
-0.155249
-0.233886
-0.359371
-0.525488
-0.710793
-0.83423
-0.88671
-0.915518
-0.885118
-0.751535
-0.603609
-0.841968
-2.32619
-6.55866
-15.1725
-0.174149
-0.248719
-0.305147
-0.341459
-0.349723
-0.345051
-0.340973
-0.342427
-0.371456
-0.436124
-0.528721
-0.635563
-0.757143
-0.878761
-0.952581
-0.924428
-0.838196
-0.702777
-0.556839
-0.725419
-2.08109
-7.01643
-22.1659
-0.381444
-0.386612
-0.426278
-0.46296
-0.484674
-0.499019
-0.51164
-0.52972
-0.563818
-0.613209
-0.67462
-0.743597
-0.815991
-0.875928
-0.898977
-0.841585
-0.742659
-0.534601
-0.24116
-0.171097
-1.40391
-7.4544
-9.39027
-0.575298
-0.564378
-0.586046
-0.614721
-0.639142
-0.659873
-0.678166
-0.700177
-0.733023
-0.774801
-0.82184
-0.87106
-0.915261
-0.940235
-0.932192
-0.87597
-0.763583
-0.559618
-0.304363
-0.364565
-0.818668
0.954995
17.4939
-0.753975
-0.749421
-0.765485
-0.785935
-0.806573
-0.826576
-0.846439
-0.869283
-0.897959
-0.931591
-0.967833
-1.00298
-1.03084
-1.04343
-1.03315
-0.994349
-0.925711
-0.833973
-0.751488
-0.860633
-1.38668
-1.68017
0.840808
-0.931362
-0.933043
-0.945125
-0.960193
-0.97709
-0.995122
-1.01445
-1.03621
-1.061
-1.08741
-1.11488
-1.14017
-1.15926
-1.16819
-1.16426
-1.14638
-1.1189
-1.0967
-1.11769
-1.26122
-1.57767
-1.87686
-1.58724
-1.10854
-1.11144
-1.12029
-1.13208
-1.14623
-1.16232
-1.17991
-1.19921
-1.22039
-1.24248
-1.26431
-1.28397
-1.29916
-1.3079
-1.30973
-1.30586
-1.30101
-1.30545
-1.33881
-1.4324
-1.58365
-1.68872
-1.76179
-1.28207
-1.28502
-1.29199
-1.30174
-1.31374
-1.32783
-1.34335
-1.36027
-1.37851
-1.39733
-1.41563
-1.43212
-1.44576
-1.45545
-1.46149
-1.4653
-1.47002
-1.4812
-1.50586
-1.55138
-1.6303
-1.67527
-1.72174
-1.45227
-1.45513
-1.46095
-1.46935
-1.47971
-1.49201
-1.50572
-1.52069
-1.5366
-1.55289
-1.56877
-1.58347
-1.59636
-1.60696
-1.61558
-1.6231
-1.63115
-1.64206
-1.65714
-1.67479
-1.71172
-1.67091
-1.53475
-1.61996
-1.62243
-1.62752
-1.63488
-1.644
-1.6549
-1.66713
-1.68049
-1.69463
-1.70913
-1.72345
-1.73708
-1.74961
-1.7608
-1.77077
-1.77989
-1.78872
-1.79772
-1.80475
-1.8098
-1.82332
-1.72865
-1.51185
-1.78534
-1.78737
-1.79199
-1.79851
-1.8067
-1.8165
-1.82754
-1.83962
-1.85245
-1.86571
-1.87902
-1.89202
-1.90442
-1.91606
-1.92693
-1.93703
-1.94642
-1.95497
-1.96021
-1.96274
-1.96939
-1.93692
-1.8943
-1.94862
-1.95033
-1.95458
-1.96046
-1.96794
-1.97689
-1.98701
-1.99813
-2.00999
-2.02238
-2.03503
-2.0477
-2.06019
-2.07236
-2.08417
-2.09559
-2.10666
-2.11787
-2.12947
-2.14339
-2.17836
-2.28826
-2.49089
-2.10999
-2.11156
-2.11546
-2.12086
-2.12781
-2.13612
-2.14555
-2.15595
-2.16713
-2.17894
-2.1912
-2.20377
-2.21652
-2.22937
-2.24234
-2.25549
-2.26916
-2.28442
-2.30373
-2.33127
-2.38371
-2.51757
-2.69704
-2.26966
-2.27118
-2.27477
-2.27982
-2.28635
-2.29418
-2.30312
-2.31301
-2.32372
-2.33516
-2.34725
-2.35989
-2.37303
-2.38667
-2.40086
-2.4158
-2.43197
-2.45047
-2.4736
-2.50531
-2.55327
-2.6417
-2.74984
-2.4278
-2.42929
-2.43263
-2.4374
-2.44362
-2.45109
-2.45966
-2.4692
-2.47961
-2.49085
-2.50289
-2.51572
-2.52933
-2.54377
-2.55914
-2.57566
-2.59376
-2.61421
-2.63824
-2.66756
-2.70342
-2.74605
-2.78816
-2.58453
-2.58601
-2.58913
-2.59369
-2.59964
-2.60683
-2.61513
-2.62443
-2.63466
-2.64581
-2.6579
-2.67097
-2.68506
-2.70028
-2.71674
-2.73466
-2.75437
-2.77629
-2.80081
-2.82798
-2.856
-2.87848
-2.87595
-2.73996
-2.74141
-2.74435
-2.74872
-2.75443
-2.76139
-2.76947
-2.7786
-2.78872
-2.79985
-2.81203
-2.82536
-2.83993
-2.85589
-2.87338
-2.89266
-2.91404
-2.93786
-2.96433
-2.99313
-3.02205
-3.04371
-3.00657
-2.89418
-2.8956
-2.89837
-2.90255
-2.90803
-2.91477
-2.92265
-2.93163
-2.94167
-2.95279
-2.96508
-2.97865
-2.99365
-3.01027
-3.02874
-3.04937
-3.07263
-3.09903
-3.12925
-3.164
-3.20403
-3.24984
-3.29281
-3.04724
-3.04861
-3.05123
-3.05523
-3.06049
-3.06699
-3.07467
-3.08348
-3.09341
-3.1045
-3.11685
-3.1306
-3.14594
-3.16311
-3.18241
-3.20429
-3.22937
-3.25859
-3.29338
-3.33623
-3.39256
-3.4721
-3.60309
-3.19919
-3.20051
-3.20299
-3.20682
-3.21185
-3.2181
-3.22554
-3.23414
-3.24391
-3.25491
-3.26724
-3.28106
-3.29658
-3.3141
-3.33399
-3.35677
-3.38321
-3.41452
-3.45265
-3.50086
-3.56575
-3.65715
-3.80252
-3.35008
-3.35134
-3.3537
-3.35734
-3.36215
-3.36814
-3.3753
-3.38364
-3.39318
-3.40398
-3.41617
-3.42991
-3.44544
-3.46305
-3.48316
-3.5063
-3.5333
-3.56536
-3.60433
-3.65298
-3.71591
-3.79819
-3.91202
-3.49993
-3.50113
-3.50338
-3.50685
-3.51142
-3.51715
-3.524
-3.53202
-3.54125
-3.55177
-3.56368
-3.57717
-3.59247
-3.60988
-3.62979
-3.65272
-3.67941
-3.71089
-3.74862
-3.79451
-3.8512
-3.92113
-4.00906
-3.64879
-3.64994
-3.65206
-3.65536
-3.6597
-3.66514
-3.67167
-3.67933
-3.68818
-3.6983
-3.7098
-3.72287
-3.73771
-3.75462
-3.77394
-3.79614
-3.82182
-3.85181
-3.88716
-3.92916
-3.97938
-4.03923
-4.11066
-3.7967
-3.79779
-3.79979
-3.80291
-3.807
-3.81214
-3.81832
-3.82558
-3.83399
-3.84363
-3.85461
-3.86708
-3.88126
-3.89741
-3.91582
-3.93686
-3.96104
-3.98895
-4.02136
-4.05908
-4.10303
-4.15386
-4.21208
-3.9437
-3.94474
-3.94661
-3.94953
-3.95336
-3.95819
-3.96398
-3.97081
-3.97873
-3.98781
-3.99816
-4.00991
-4.02326
-4.03842
-4.05565
-4.07524
-4.09757
-4.12308
-4.15226
-4.1856
-4.22357
-4.26638
-4.31389
-4.08985
-4.09084
-4.09256
-4.09527
-4.09883
-4.10331
-4.1087
-4.11507
-4.12245
-4.1309
-4.14054
-4.15146
-4.16385
-4.17787
-4.19373
-4.21166
-4.23194
-4.25487
-4.28076
-4.30989
-4.34246
-4.37846
-4.4176
-4.2352
-4.23614
-4.2377
-4.24019
-4.24345
-4.24757
-4.25253
-4.2584
-4.2652
-4.27298
-4.28184
-4.29186
-4.30319
-4.31596
-4.33033
-4.34649
-4.36462
-4.38494
-4.40763
-4.43284
-4.46061
-4.49087
-4.52329
-4.37981
-4.38067
-4.38208
-4.38434
-4.38729
-4.39103
-4.39554
-4.40088
-4.40706
-4.41413
-4.42216
-4.43123
-4.44144
-4.4529
-4.46573
-4.48007
-4.49604
-4.51379
-4.53344
-4.55503
-4.57856
-4.6039
-4.6308
-4.52373
-4.52451
-4.52576
-4.5278
-4.53042
-4.53377
-4.53781
-4.54258
-4.54812
-4.55445
-4.56162
-4.5697
-4.57875
-4.58887
-4.60015
-4.61266
-4.62652
-4.6418
-4.65858
-4.67686
-4.69661
-4.71772
-4.73996
-4.66703
-4.66772
-4.66882
-4.67062
-4.67292
-4.67586
-4.67941
-4.68361
-4.68848
-4.69404
-4.70034
-4.7074
-4.71529
-4.72406
-4.73379
-4.74452
-4.75633
-4.76927
-4.78336
-4.79861
-4.81498
-4.83237
-4.85063
-4.80979
-4.81036
-4.81133
-4.81288
-4.81485
-4.81739
-4.82044
-4.82406
-4.82824
-4.83302
-4.83842
-4.84447
-4.85119
-4.85864
-4.86685
-4.87586
-4.88572
-4.89644
-4.90805
-4.92053
-4.93386
-4.94796
-4.96272
-4.95206
-4.9525
-4.95333
-4.95464
-4.95629
-4.95843
-4.96098
-4.96401
-4.96751
-4.97151
-4.97602
-4.98105
-4.98663
-4.99278
-4.99953
-5.00689
-5.0149
-5.02355
-5.03287
-5.04284
-5.05344
-5.06461
-5.07631
-5.09393
-5.09421
-5.09492
-5.09599
-5.09732
-5.09906
-5.10111
-5.10356
-5.10639
-5.10961
-5.11324
-5.11728
-5.12174
-5.12664
-5.13199
-5.1378
-5.14408
-5.15083
-5.15806
-5.16576
-5.17392
-5.18251
-5.19152
-5.23546
-5.23558
-5.23617
-5.237
-5.23803
-5.23936
-5.24094
-5.24282
-5.24498
-5.24744
-5.25021
-5.25329
-5.25667
-5.26038
-5.26441
-5.26876
-5.27344
-5.27845
-5.28378
-5.28945
-5.29543
-5.30174
-5.30838
-5.37674
-5.37669
-5.37717
-5.37776
-5.37849
-5.37944
-5.38054
-5.38186
-5.38337
-5.3851
-5.38704
-5.38919
-5.39155
-5.39412
-5.3969
-5.39989
-5.4031
-5.40651
-5.41013
-5.41397
-5.41802
-5.42229
-5.42682
-5.51778
-5.51761
-5.51799
-5.51833
-5.51876
-5.51933
-5.51997
-5.52075
-5.52164
-5.52265
-5.52379
-5.52504
-5.52642
-5.52792
-5.52953
-5.53125
-5.53309
-5.53504
-5.53711
-5.53929
-5.54159
-5.54402
-5.54661
-5.65878
-5.65854
-5.65872
-5.65882
-5.65896
-5.65916
-5.65936
-5.65962
-5.65991
-5.66024
-5.66061
-5.66102
-5.66146
-5.66193
-5.66244
-5.66298
-5.66355
-5.66416
-5.66479
-5.66545
-5.66615
-5.6669
-5.66771
380.63
371.927
492.494
-201.534
281.885
302.227
412.816
367.275
158.169
196.228
313.251
491.415
25.9887
38.6827
147.837
359.594
-32.6897
-35.8711
7.43516
170.858
-31.9495
-48.9976
-26.6866
115.618
-62.107
-53.8769
7.50498
70.8653
-6.59407
4.90444
4.77885
16.9343
27.1461
12.6825
2.9146
5.43594
5.95502
9.15427
2.22132
1.0735
0.518177
4.94756
0.461012
-1.84875
-1.34249
1.30036
-0.691156
-4.10782
-1.54518
-1.64063
-3.76415
-5.65223
-1.37786
-6.84034
-6.85171
-5.30368
-1.92442
-8.82856
-5.89405
-2.62764
-2.05192
-0.850253
-0.157734
3.33387
-2.37643
-2.61502
-2.12529
0.0746864
-2.69544
-2.66495
-2.4078
-2.41515
-2.73144
-2.65182
-2.67332
-2.66669
-2.75292
-2.69273
-3.35535
-3.61976
-2.86596
-3.20003
-3.66452
-2.59532
-3.12309
-3.95258
-4.796
-4.60277
-3.58415
-4.63948
-5.70352
-5.08229
-3.99728
-5.0269
-5.48943
-4.98259
-4.08714
-4.65004
-4.9598
-4.76294
-4.08948
-4.39805
-4.61384
-4.58492
-4.13469
-4.32942
-4.48795
-4.50801
-4.20914
-4.34519
-4.45625
-4.49004
-4.28994
-4.3895
-4.47396
-4.52026
-4.37605
-4.45272
-4.52043
-4.56542
-4.46807
-4.52924
-4.58473
-4.62637
-4.56469
-4.61442
-4.66069
-4.69894
-4.66491
-4.70581
-4.74473
-4.77901
-4.76808
-4.80186
-4.83471
-4.8652
-4.87367
-4.9015
-4.92917
-4.95608
-4.98138
-5.00409
-5.02719
-5.05077
-5.09114
-5.10941
-5.12855
-5.14908
-5.20301
-5.21744
-5.23315
-5.25093
-5.31694
-5.328
-5.34061
-5.35579
-5.43272
-5.44064
-5.45024
-5.46277
-5.55004
-5.55485
-5.56137
-5.57102
-5.66883
-5.67047
-5.67359
-5.67985
200.507
286.349
287.061
291.018
293.097
297.757
302.004
268.112
211.757
158.304
111.775
76.0565
80.3177
86.9868
101.474
194.559
342.799
540.098
575.886
308.331
283.938
278.62
282.961
292.199
332.283
323.08
226.388
142.594
77.2116
73.773
77.2996
83.2743
88.6204
91.6992
95.4493
156.752
432.9
468.599
346.967
292.23
280.466
289.129
326.932
458.942
353.95
206.316
91.9264
44.7749
78.2394
79.878
82.4219
83.1318
79.2167
73.984
71.514
332.813
402.158
370.737
314.28
292.613
315.199
511.872
500.755
352.68
186.056
82.9583
47.1339
71.8705
74.9152
75.6976
79.3976
77.6277
71.3318
63.4819
224.089
338.868
388.332
348.316
381.409
499.913
468.412
339.861
243.634
143.389
81.8589
60.5734
67.0616
68.5822
66.6411
74.7499
102.349
128.733
148.494
196.029
262.802
319.235
316.972
323.904
337.517
243.774
154.306
127.078
97.3108
68.8503
66.0576
71.419
64.3061
65.0962
80.5813
120.752
214.095
231.883
221.209
208.444
169.476
180.833
165.444
132.652
68.0344
51.8783
41.6184
35.9069
27.5305
39.1237
47.5062
54.5388
73.1404
85.6449
123.725
205.509
238.395
242.223
234.941
77.6165
120.59
109.378
32.8918
12.8836
10.9179
8.12607
5.16937
-1.95923
8.76564
22.6957
36.246
61.0458
92.8437
130.778
186.87
225.985
236.897
231.356
27.5298
59.7853
42.7489
12.0499
4.79397
2.43856
1.18607
-0.723636
-4.66943
2.70313
2.65139
3.40625
25.3011
60.8703
107.18
161.346
201.958
213.727
187.047
7.17715
15.1427
15.4342
4.62022
-0.0281208
-0.328008
-1.0495
-1.63947
-2.39078
-3.78681
-3.64153
13.5848
25.1074
30.7548
48.0528
88.6221
166.791
196.891
152.86
-0.0821005
1.68791
2.38817
-6.88334
-2.32945
-1.69077
-2.1399
-2.4883
-2.76488
-2.89772
-2.83743
-2.70862
-2.32493
-1.98306
-1.33492
2.23925
14.7751
62.252
147.627
-3.38434
-2.60919
-5.88733
-14.7375
-4.46634
-3.01373
-2.71277
-3.00126
-3.1707
-3.17202
-2.96579
-2.69027
-2.46842
-2.44283
-2.64559
-2.5563
0.605614
17.859
59.1953
-4.6087
-3.86203
-9.34828
-18.2393
-9.99281
-4.32341
-3.37887
-3.58215
-3.5506
-3.39956
-3.13237
-2.87627
-2.71418
-2.70179
-2.79431
-2.96226
-2.86259
0.308504
25.3739
-4.10312
-3.09564
-6.44514
-10.601
-6.38827
-4.45596
-4.38928
-4.41365
-4.16375
-3.79296
-3.4103
-3.12394
-2.95092
-2.89416
-2.92701
-2.98755
-3.01259
-2.6404
11.2959
-1.09327
-0.722341
-0.248976
-3.7478
-3.50366
-4.41179
-5.08912
-5.04175
-4.65277
-4.10989
-3.64433
-3.33924
-3.15808
-3.06712
-3.03899
-3.06233
-3.03242
-3.23662
1.16541
1.13563
-0.420225
3.38183
-1.20232
-2.56957
-4.12273
-5.08596
-5.09004
-4.68833
-4.13855
-3.70384
-3.43647
-3.27474
-3.17673
-3.12699
-3.11577
-3.07143
-3.17295
-2.57971
-0.350245
-1.65881
-2.98096
-2.60587
-2.78474
-3.69742
-4.41674
-4.56423
-4.32167
-3.92173
-3.61959
-3.43807
-3.31728
-3.22952
-3.16842
-3.12525
-3.05144
-3.03827
-2.66881
-3.6024
-3.60718
-3.47201
-3.19411
-2.92673
-3.19941
-3.59024
-3.80845
-3.80185
-3.64168
-3.50088
-3.40684
-3.32475
-3.25163
-3.18303
-3.12771
-3.03768
-3.01063
-2.72788
-2.83752
-3.2455
-3.18331
-2.94694
-2.70344
-2.85166
-3.12446
-3.38019
-3.48931
-3.47934
-3.4444
-3.40312
-3.34166
-3.28398
-3.21342
-3.13884
-3.04658
-3.01936
-3.0111
-3.27928
-3.21684
-3.06575
-2.86943
-2.74377
-2.91005
-3.13366
-3.3088
-3.412
-3.45566
-3.46572
-3.44748
-3.40366
-3.38092
-3.3415
-3.26075
-3.13334
-3.10382
-3.09483
-3.53149
-3.48509
-3.39298
-3.23242
-3.1612
-3.21233
-3.31009
-3.40739
-3.47924
-3.52488
-3.54417
-3.53496
-3.51346
-3.52495
-3.55805
-3.56261
-3.47338
-3.43023
-3.35748
-4.02453
-3.81903
-3.65638
-3.51007
-3.44548
-3.45509
-3.50236
-3.55817
-3.60659
-3.64007
-3.65431
-3.64895
-3.6521
-3.69048
-3.81316
-3.83496
-3.79305
-3.78678
-3.8287
-4.30873
-4.06285
-3.88092
-3.75136
-3.68612
-3.67335
-3.69294
-3.72612
-3.75658
-3.77316
-3.77634
-3.77322
-3.79759
-3.8824
-4.0446
-4.07523
-4.00239
-4.03602
-3.70314
-4.43607
-4.18487
-4.03328
-3.93372
-3.87751
-3.85877
-3.86825
-3.8907
-3.90715
-3.90689
-3.90032
-3.9007
-3.93996
-4.0579
-4.21047
-4.30527
-4.19169
-4.37535
-3.61793
-4.44204
-4.26067
-4.15081
-4.0796
-4.03645
-4.02008
-4.02699
-4.04235
-4.04589
-4.0324
-4.0214
-4.02406
-4.05577
-4.13338
-4.34558
-4.40314
-4.28651
-4.44186
-3.9342
-4.43385
-4.32507
-4.25127
-4.20202
-4.17159
-4.16072
-4.16679
-4.17445
-4.1664
-4.14659
-4.13699
-4.13962
-4.152
-4.1665
-4.37194
-4.38965
-4.34871
-4.4552
-4.50556
-4.44389
-4.3853
-4.34008
-4.30852
-4.28926
-4.28364
-4.28743
-4.28643
-4.26983
-4.24961
-4.24347
-4.24477
-4.23534
-4.20969
-4.33287
-4.40342
-4.40012
-4.40425
-3.96362
-4.47287
-4.44669
-4.42277
-4.405
-4.39457
-4.39212
-4.39212
-4.38307
-4.36178
-4.34314
-4.34175
-4.35204
-4.28366
-4.36106
-4.40972
-4.5038
-4.50724
-4.5208
-4.12494
-4.52029
-4.51201
-4.50263
-4.49528
-4.49131
-4.49027
-4.48682
-4.47273
-4.44966
-4.43175
-4.43915
-4.47953
-4.41306
-4.58628
-4.58333
-4.68125
-4.67534
-4.70425
-4.30907
-4.57859
-4.58165
-4.58215
-4.58231
-4.58311
-4.58377
-4.57924
-4.56417
-4.54196
-4.52997
-4.5644
-4.6288
-4.6806
-4.83653
-4.83165
-4.90415
-4.88231
-4.90687
-4.57568
-4.64614
-4.656
-4.66308
-4.66892
-4.67425
-4.67829
-4.67641
-4.66466
-4.64691
-4.64746
-4.71802
-4.82154
-5.02352
-5.10523
-5.12939
-5.16502
-5.12147
-5.17894
-5.24996
-4.72116
-4.73488
-4.74652
-4.75727
-4.76794
-4.77798
-4.78307
-4.77951
-4.77106
-4.78753
-4.90201
-5.04491
-5.34829
-5.41578
-5.44307
-5.44274
-5.35042
-5.48174
-6.01463
-4.80202
-4.81797
-4.8331
-4.84874
-4.86614
-4.8854
-4.90195
-4.91106
-4.91575
-4.94889
-5.10266
-5.37127
-5.6364
-5.73589
-5.78171
-5.73352
-5.57675
-5.72467
-4.12889
-4.88785
-4.90505
-4.92316
-4.94388
-4.96943
-5.00074
-5.03259
-5.05905
-5.0826
-5.13202
-5.32653
-5.74212
-6.07065
-6.20842
-6.17692
-6.00061
-5.77809
-5.81252
-5.67143
-4.9778
-4.99568
-5.01624
-5.04177
-5.07607
-5.1203
-5.16892
-5.21643
-5.263
-5.33121
-5.54545
-6.06777
-6.526
-6.65168
-6.41915
-6.09258
-5.83847
-5.74824
-5.67025
-5.07124
-5.08921
-5.11126
-5.14054
-5.18228
-5.23682
-5.30058
-5.36885
-5.43529
-5.50977
-5.66506
-6.02329
-6.36708
-6.44856
-6.21664
-5.94528
-5.74305
-5.64251
-5.59819
-5.16805
-5.18548
-5.20766
-5.23856
-5.28384
-5.34279
-5.41615
-5.49969
-5.57652
-5.63504
-5.68541
-5.79009
-5.89372
-5.90779
-5.8109
-5.68483
-5.58491
-5.53448
-5.51697
-5.26825
-5.28455
-5.30543
-5.33499
-5.37825
-5.43386
-5.50579
-5.59525
-5.67488
-5.71318
-5.68468
-5.61837
-5.56848
-5.54033
-5.51775
-5.49326
-5.47749
-5.47818
-5.48537
-5.37133
-5.38607
-5.40466
-5.43038
-5.46677
-5.51218
-5.57048
-5.64848
-5.72026
-5.74259
-5.68326
-5.55106
-5.43283
-5.38312
-5.39621
-5.4298
-5.46287
-5.49186
-5.51107
-5.47634
-5.48922
-5.5051
-5.52598
-5.55379
-5.58635
-5.62562
-5.67434
-5.71767
-5.72618
-5.6702
-5.54992
-5.44815
-5.41149
-5.43216
-5.4789
-5.52693
-5.5651
-5.58705
-5.58217
-5.59283
-5.60576
-5.62154
-5.64201
-5.66261
-5.68422
-5.70402
-5.71438
-5.7043
-5.66591
-5.60462
-5.55156
-5.52895
-5.54698
-5.59391
-5.64505
-5.68579
-5.70824
-5.68782
-5.69552
-5.70478
-5.71569
-5.72769
-5.73879
-5.748
-5.75074
-5.74217
-5.724
-5.7051
-5.68375
-5.668
-5.67241
-5.7055
-5.75901
-5.81446
-5.85791
-5.87992
)
;

boundaryField
{
    leftWall
    {
        type            calculated;
        value           nonuniform List<scalar> 
50
(
532.414
472.743
410.917
347.578
283.582
219.407
155.003
89.7812
26.6112
3.25049
1.20977
0.5279
0.246747
0.0281494
-0.174149
-0.381444
-0.575298
-0.753975
-0.931362
-1.10854
-1.28207
-1.45227
-1.61996
-1.78534
-1.94862
-2.10999
-2.26966
-2.4278
-2.58453
-2.73996
-2.89418
-3.04724
-3.19919
-3.35008
-3.49993
-3.64879
-3.7967
-3.9437
-4.08985
-4.2352
-4.37981
-4.52373
-4.66703
-4.80979
-4.95206
-5.09393
-5.23546
-5.37674
-5.51778
-5.65878
)
;
    }
    rightWall
    {
        type            calculated;
        value           nonuniform List<scalar> 
50
(
972.635
917.602
835.194
750.044
705.551
694.717
678.83
647.394
575.886
468.599
402.158
338.868
262.802
208.444
234.941
231.356
187.047
152.86
147.627
59.1953
25.3739
11.2959
1.16541
-2.57971
-2.66881
-2.72788
-3.0111
-3.09483
-3.35748
-3.8287
-3.70314
-3.61793
-3.9342
-4.50556
-3.96362
-4.12494
-4.30907
-4.57568
-5.24996
-6.01463
-4.12889
-5.67143
-5.67025
-5.59819
-5.51697
-5.48537
-5.51107
-5.58705
-5.70824
-5.87992
)
;
    }
    lowerWall
    {
        type            calculated;
        value           nonuniform List<scalar> 
62
(
561.843
562.277
565.086
570.954
581.982
600.125
624.468
650.508
675.412
699.253
722.315
744.545
765.786
785.808
804.306
820.959
833.017
840.116
844.684
852.864
875.194
905.854
916.107
886.705
822.772
757.441
692.252
627.998
563.218
494.504
425.89
443.222
434.519
555.033
-147.13
1025.27
948.809
904.3
927.983
980.741
951.308
819.09
588.455
1035.52
914.205
934.162
963.868
865.07
701.275
592.452
605.047
726.189
897.248
972.179
995.197
1010.1
975.033
905.136
861.389
873.605
938.613
997.882
)
;
    }
    atmosphere
    {
        type            calculated;
        value           nonuniform List<scalar> 
46
(
-5.72904
-5.72904
-5.72904
-5.72904
-5.72904
-5.72904
-5.72904
-5.72904
-5.72904
-5.72904
-5.72904
-5.72904
-5.72904
-5.72904
-5.72904
-5.72904
-5.72904
-5.72904
-5.72904
-5.72904
-5.72904
-5.72904
-5.72904
-5.72904
-5.72904
-5.73021
-5.73443
-5.74023
-5.74579
-5.75202
-5.75929
-5.76773
-5.77526
-5.77918
-5.77866
-5.77147
-5.75628
-5.73953
-5.73221
-5.73449
-5.75394
-5.80292
-5.86797
-5.92806
-5.97423
-5.99336
)
;
    }
    defaultFaces
    {
        type            empty;
    }
}


// ************************************************************************* //
