/*--------------------------------*- C++ -*----------------------------------*\
| =========                 |                                                 |
| \\      /  F ield         | OpenFOAM: The Open Source CFD Toolbox           |
|  \\    /   O peration     | Version:  2206                                  |
|   \\  /    A nd           | Website:  www.openfoam.com                      |
|    \\/     M anipulation  |                                                 |
\*---------------------------------------------------------------------------*/
FoamFile
{
    version     2.0;
    format      ascii;
    arch        "LSB;label=32;scalar=64";
    class       volScalarField;
    location    "0.725";
    object      p_rgh;
}
// * * * * * * * * * * * * * * * * * * * * * * * * * * * * * * * * * * * * * //

dimensions      [1 -1 -2 0 0 0 0];

internalField   nonuniform List<scalar> 
2268
(
561.843
562.277
565.086
570.954
581.982
600.125
624.468
650.508
675.412
699.253
722.315
744.545
765.786
785.808
804.306
820.959
833.017
840.116
844.684
852.864
875.194
905.854
916.107
561.032
560.947
563.646
569.356
580.042
598.486
623.629
650.285
675.481
699.441
722.566
744.804
766.053
786.164
804.754
821.931
835.372
840.668
839.78
845.193
866.213
895.841
911.024
558.064
557.756
560.837
566.552
576.717
595.377
621.762
649.808
675.655
699.757
722.889
745.076
766.207
786.2
804.843
822.232
838.043
843.463
838.8
841.79
859.808
888.011
904.53
553.583
553.218
556.814
562.383
571.679
590.092
619.036
649.357
676.163
700.396
723.491
745.627
766.671
786.555
805.2
822.651
838.578
849.626
851.07
852.437
865.159
891.415
898.177
548.446
547.843
551.841
557.265
566.147
585.069
616.94
649.588
677.201
701.426
724.416
746.473
767.446
787.273
805.963
823.559
839.796
852.735
861.37
868.656
881.771
891.939
892.856
543.13
541.979
546.269
551.742
561.252
580.593
616.549
650.62
678.652
702.829
725.655
747.586
768.46
788.239
807.005
824.811
841.505
856.084
867.335
876.196
887.443
893.163
886.933
537.585
536.706
540.553
546.625
557.656
580.694
616.245
651.557
679.816
704.255
727.192
749.032
769.757
789.427
808.225
826.186
843.187
858.747
871.503
881.899
892.504
894.819
877.072
531.222
531.339
529.658
529.302
535.909
561.085
606.363
652.4
680.636
705.464
728.776
750.624
771.196
790.778
809.636
827.752
844.983
861.435
875.279
886.77
897.442
897.985
867.318
1035.52
914.205
934.162
963.868
865.07
701.275
592.452
605.047
726.189
897.248
972.179
995.197
1010.1
975.033
905.136
861.389
873.605
938.613
997.882
1009.69
880.849
958.012
916.156
722.414
520.222
466.53
535.614
688.158
880.078
959.388
972.488
997.024
962.014
867.367
807.687
814.888
904.981
998.438
1006.47
875.877
955.763
717.957
452.527
394.766
401.77
465.816
611.992
809.041
902.856
906.107
916.885
895.484
838.805
751.027
705.496
785.146
969.92
1071.03
954.033
811.305
467.76
362.989
360.619
383.835
450.815
588.498
812.46
885.113
873.785
898.947
905.909
867.243
742.786
696.4
723.508
936.405
1164.65
946.54
644.403
357.41
335.991
343.762
369.311
437.546
665.776
864.934
929.711
882.027
783.984
733.022
763.625
782.684
718.433
741.966
845.392
1175.96
858.98
425.998
329.19
323.571
333.041
358.963
539.363
692.152
761.084
776.918
694.181
534.244
559.211
665.982
747.035
757.084
761.207
789.641
1082.45
744.212
347.077
314.231
315.04
324.77
386.527
632.944
655.351
668.346
636.028
502.616
235.506
335.105
574.274
701.667
812.963
761.397
790.882
887.917
614.764
319.274
306.387
308.638
319.47
561.997
641.256
627.089
604.715
554.589
295.565
101.743
149.066
476.315
657.509
783.661
768.973
777.025
233.691
233.032
243.933
263.639
304.715
391.768
510.468
617.922
679.702
706.928
731.547
753.647
773.768
793.001
811.878
830.301
848.591
865.761
880.939
893.729
904.631
909.003
905.527
10.5751
18.1317
28.8737
50.6176
85.4553
135.784
206.959
307.222
443.001
584.24
681.161
739.143
774.144
797.335
816.011
833.471
851.76
871.342
889.877
904.338
914.765
921.241
928.774
2.09045
1.6576
1.48894
1.41154
2.14633
4.99594
12.3629
26.7376
54.716
115.516
216.165
324.565
417.639
515.055
621.054
707.611
768.244
837.249
889.497
915.096
930.132
933
934.827
1.45265
1.20831
1.15118
1.04038
0.973248
1.0074
1.09476
1.14663
1.15894
1.13689
1.07521
0.953163
0.751521
14.3336
74.4399
150.211
232.391
328.057
443.024
558.682
690.608
782.371
787.566
1.28315
0.973953
0.996651
0.926113
0.897867
0.91515
0.991476
1.07588
1.08719
1.04389
0.979447
0.861168
0.641423
0.350857
0.105476
0.0943657
0.452239
15.533
77.5441
113.923
120.161
105.535
49.7179
1.18834
0.984144
0.962777
0.924005
0.923176
0.952644
0.99781
1.02569
1.00419
0.925565
0.800127
0.644467
0.484739
0.338972
0.272899
0.244371
0.275957
0.414428
0.582136
0.42217
-0.78074
-4.15724
-10.2551
1.1106
1.03613
0.979517
0.943177
0.934912
0.939584
0.943662
0.942213
0.913228
0.848561
0.75597
0.664188
0.566865
0.440357
0.332189
0.360372
0.447257
0.589378
0.78785
0.947572
0.579276
3.88384
215.536
1.0284
1.02322
0.983554
0.94687
0.925155
0.91081
0.898189
0.880112
0.846104
0.79676
0.735329
0.67587
0.623949
0.551415
0.510991
0.568307
0.667426
0.881018
1.26899
2.2229
6.26135
138.479
706.42
0.959727
0.970646
0.948978
0.920302
0.895882
0.875151
0.856858
0.834847
0.802063
0.760356
0.713572
0.665621
0.620916
0.594822
0.602849
0.659066
0.771509
0.977782
1.2836
1.69879
3.8589
147.425
457.99
0.906243
0.910797
0.894733
0.874283
0.853644
0.833642
0.813779
0.790935
0.762269
0.728687
0.692711
0.657375
0.629486
0.616793
0.627074
0.665872
0.734519
0.827983
0.925225
0.941629
2.34322
29.2473
75.9196
0.85405
0.852369
0.840287
0.825219
0.808322
0.79029
0.770959
0.749206
0.724411
0.698006
0.670577
0.645246
0.62619
0.617227
0.621156
0.639035
0.66736
0.691602
0.669674
0.537043
0.343775
0.326205
5.31603
0.802071
0.799169
0.790319
0.778528
0.76438
0.748282
0.730698
0.7114
0.690217
0.668125
0.646298
0.626639
0.611455
0.602709
0.600881
0.604771
0.610874
0.607163
0.572359
0.5151
0.626968
0.662285
0.579547
0.753731
0.750781
0.743813
0.734062
0.72206
0.707974
0.692449
0.675528
0.657295
0.638476
0.620181
0.60369
0.590046
0.580356
0.574314
0.57055
0.566166
0.554686
0.530074
0.561634
1.05032
1.00193
0.759426
0.708726
0.705867
0.700041
0.691643
0.681285
0.668984
0.655278
0.640308
0.624394
0.608114
0.592231
0.577535
0.564642
0.554035
0.545421
0.537915
0.529846
0.518953
0.503896
0.575529
1.01484
0.986172
1.09822
0.666235
0.663762
0.65867
0.651314
0.642189
0.631291
0.619065
0.605702
0.591562
0.577068
0.562748
0.549122
0.536581
0.525394
0.515418
0.506303
0.497469
0.488471
0.484103
0.523829
0.513313
0.62715
1.08068
0.626041
0.624015
0.619399
0.612879
0.604689
0.594888
0.583849
0.571762
0.558937
0.545675
0.532364
0.51937
0.506966
0.495328
0.484459
0.474351
0.46497
0.456444
0.452423
0.449665
0.446339
0.515277
5.08585
0.587964
0.586245
0.582002
0.576124
0.568641
0.559688
0.549569
0.538454
0.52659
0.514197
0.501546
0.48888
0.476395
0.464224
0.452409
0.440988
0.429922
0.418721
0.407115
0.393312
0.360019
0.571205
9.64753
0.551786
0.550215
0.546315
0.540915
0.533969
0.525656
0.516223
0.505822
0.494644
0.482836
0.470573
0.458003
0.445258
0.432401
0.419438
0.406282
0.392611
0.377356
0.358047
0.330535
0.278803
0.822802
4.32744
0.517309
0.515791
0.512199
0.507153
0.500616
0.492784
0.483851
0.473961
0.463249
0.451805
0.439722
0.42708
0.41394
0.400302
0.386106
0.371167
0.354997
0.336503
0.313369
0.281664
0.244339
0.481031
0.0867181
0.484367
0.482869
0.479536
0.474759
0.468545
0.461074
0.452504
0.442963
0.43255
0.421309
0.409268
0.396445
0.382836
0.368396
0.353021
0.336506
0.318407
0.297952
0.273927
0.244624
0.211769
0.168123
0.148217
0.45283
0.45135
0.448229
0.443672
0.437722
0.43053
0.422229
0.412928
0.402694
0.391546
0.379457
0.366392
0.352295
0.337076
0.320613
0.302693
0.282986
0.261069
0.236552
0.209382
0.181385
0.159115
0.164189
0.422588
0.421138
0.4182
0.413837
0.408122
0.401166
0.39308
0.38395
0.373828
0.362705
0.350519
0.337192
0.32262
0.306665
0.289171
0.269893
0.248511
0.224697
0.19822
0.169418
0.140501
0.11887
0.156318
0.393565
0.392151
0.389381
0.385202
0.379712
0.37298
0.365093
0.356113
0.346076
0.334957
0.322668
0.309097
0.294096
0.277477
0.259011
0.238372
0.215122
0.188717
0.158499
0.123747
0.0837168
0.0379061
-0.00490066
0.365699
0.364329
0.361711
0.357712
0.35245
0.345949
0.338274
0.329462
0.319529
0.308437
0.296088
0.282337
0.266999
0.249834
0.230531
0.208651
0.183567
0.154356
0.119565
0.0767089
0.0203858
-0.0591551
-0.190147
0.338941
0.337622
0.335142
0.331321
0.326289
0.320033
0.312601
0.304
0.294226
0.283228
0.2709
0.25708
0.241552
0.224032
0.204147
0.181369
0.154921
0.123611
0.0854893
0.0372742
-0.0276188
-0.119019
-0.264384
0.313251
0.311989
0.309633
0.305986
0.301184
0.295187
0.28803
0.279693
0.270153
0.259345
0.247156
0.233417
0.217891
0.200277
0.180175
0.157028
0.130027
0.0979688
0.0590025
0.0103472
-0.0525828
-0.134859
-0.248686
0.288593
0.28739
0.285149
0.281675
0.277101
0.271377
0.264523
0.256502
0.247272
0.236759
0.224844
0.211356
0.196058
0.178647
0.158738
0.135806
0.109116
0.0776326
0.0399067
-0.00598767
-0.0626797
-0.132607
-0.22054
0.264928
0.263783
0.261656
0.258359
0.254019
0.248578
0.242053
0.234391
0.225541
0.215422
0.203916
0.190854
0.176009
0.1591
0.139775
0.117578
0.0918964
0.0619117
0.0265621
-0.0154405
-0.0656649
-0.125507
-0.196943
0.242214
0.241124
0.23912
0.236007
0.231912
0.22677
0.220596
0.213332
0.204922
0.195286
0.184309
0.171832
0.157649
0.141506
0.123098
0.102051
0.0778769
0.0499597
0.0175558
-0.0201663
-0.0641134
-0.114948
-0.173163
0.220404
0.219365
0.217498
0.21458
0.210746
0.205923
0.200125
0.193294
0.185377
0.176298
0.165952
0.154198
0.140848
0.125686
0.108458
0.0888672
0.0665394
0.0410308
0.0118522
-0.0214925
-0.0594654
-0.102269
-0.149778
0.19945
0.198459
0.196743
0.194031
0.190477
0.185994
0.180599
0.174235
0.166857
0.158398
0.148766
0.137838
0.125456
0.111436
0.0955754
0.0776445
0.057367
0.0344345
0.00854016
-0.0205898
-0.053157
-0.0891561
-0.128294
0.179295
0.178361
0.176801
0.174307
0.17105
0.166927
0.161963
0.1561
0.149302
0.141514
0.132659
0.122635
0.111311
0.0985396
0.0841629
0.0680067
0.0498739
0.0295549
0.00686282
-0.0183411
-0.046116
-0.0763708
-0.108793
0.159885
0.159019
0.157616
0.155347
0.152402
0.148659
0.144148
0.138816
0.132634
0.125559
0.117528
0.108461
0.0982553
0.0867953
0.0739607
0.059625
0.0436504
0.0258971
0.0062558
-0.0153353
-0.0388647
-0.0642128
-0.0911059
0.141157
0.140375
0.139123
0.137089
0.134465
0.131115
0.12708
0.122303
0.116767
0.110436
0.103263
0.0951888
0.0861347
0.076015
0.0647408
0.052223
0.0383671
0.0230835
0.00631098
-0.0119711
-0.0317233
-0.0528301
-0.0750772
0.123047
0.122363
0.121256
0.119462
0.117165
0.114218
0.110673
0.10647
0.101601
0.0960375
0.0897457
0.082684
0.074796
0.0660206
0.0562956
0.0455599
0.0337511
0.020816
0.00672158
-0.0085326
-0.0249024
-0.0422921
-0.0605476
0.105486
0.104917
0.103949
0.102397
0.100427
0.0978859
0.094839
0.0912201
0.0870329
0.0822507
0.0768512
0.0708073
0.0640826
0.0566355
0.0484253
0.0394131
0.0295604
0.0188386
0.00723045
-0.00525643
-0.018584
-0.0326817
-0.0474486
0.0884064
0.087971
0.0871364
0.0858252
0.0841769
0.0820417
0.0794942
0.0764617
0.0729592
0.0689607
0.0644524
0.0594191
0.0538398
0.0476892
0.0409428
0.0335779
0.0255739
0.0169172
0.00759933
-0.0023713
-0.0129664
-0.0241417
-0.0358415
0.0717384
0.0714523
0.0707456
0.069674
0.0683408
0.0666076
0.0645531
0.0621012
0.0592774
0.0560536
0.0524252
0.0483846
0.0439205
0.0390211
0.0336729
0.027864
0.0215864
0.014835
0.00760571
-9.49797e-05
-0.00825058
-0.0168416
-0.0258508
0.0554013
0.0552829
0.05469
0.0538571
0.0528324
0.0514948
0.0499224
0.0480408
0.045883
0.0434183
0.0406498
0.0375732
0.0341843
0.0304799
0.0264534
0.0221001
0.0174203
0.0124137
0.00707722
0.00141334
-0.00457346
-0.0108828
-0.017525
0.0393165
0.0393684
0.0388824
0.0382905
0.0375675
0.0366181
0.0355152
0.0341911
0.0326815
0.0309545
0.0290177
0.0268681
0.0245068
0.0219357
0.0191536
0.016159
0.0129547
0.00954214
0.00591871
0.00208371
-0.0019657
-0.00623956
-0.0107632
0.0234671
0.0236342
0.0232565
0.0229145
0.0224869
0.0219224
0.0212774
0.020497
0.0196128
0.018597
0.0174614
0.0162041
0.0148273
0.0133331
0.0117223
0.0099946
0.00815385
0.00620338
0.00414014
0.00196019
-0.000340494
-0.00277193
-0.00535969
0.007661
0.00789821
0.00772754
0.0076213
0.00747864
0.00728557
0.00707789
0.00681804
0.00653092
0.00619929
0.00583256
0.00542744
0.00498533
0.00450811
0.00399947
0.00345946
0.00288823
0.00228747
0.00165621
0.000991454
0.000289489
-0.000457671
-0.00126735
914.046
905.346
1025.46
262.105
940.505
960.842
1071.29
870.066
941.969
979.861
1096.67
1068.09
758.437
790.723
1021.77
1082.54
18.5036
72.1121
400.553
962.445
-12.1381
176.731
719.682
1007.67
685.868
931.191
995.876
1058.45
827.76
805.163
237.325
157.061
491.904
131.411
12.9757
15.688
98.8165
77.9802
12.044
10.4725
32.1282
51.2813
10.473
8.0154
4.92227
76.9765
22.5381
6.40232
0.949566
100.295
143.926
5.54743
5.22696
132.157
155.746
6.80209
75.1241
163.489
166.427
144.198
60.2918
89.7525
97.344
50.7839
13.1667
0.705989
1.52221
8.82707
0.19264
0.389984
6.9414
127.536
0.243611
0.3721
54.6315
167.689
0.211068
5.37943
153.913
174.388
0.442131
77.807
156.738
132.346
2.14557
121.785
156.546
-0.722976
2.55818
44.3867
21.9106
-1.55711
0.154195
-1.26827
-1.82823
-1.3501
-0.548874
-1.08304
-1.33125
-1.21665
-0.42614
-0.732708
-0.941988
-0.920026
-0.346163
-0.540788
-0.699165
-0.719415
-0.295424
-0.431468
-0.54252
-0.576318
-0.251029
-0.350584
-0.435043
-0.481342
-0.211945
-0.28861
-0.356321
-0.401307
-0.178772
-0.239933
-0.295427
-0.33707
-0.150189
-0.199922
-0.246193
-0.284439
-0.125218
-0.166113
-0.205042
-0.239315
-0.103194
-0.136969
-0.16982
-0.200314
-0.0835891
-0.111416
-0.139089
-0.165998
-0.0661007
-0.0888133
-0.111917
-0.135492
-0.0506674
-0.0689437
-0.088078
-0.108612
-0.0373423
-0.0517788
-0.0674835
-0.0852693
-0.0260828
-0.0371366
-0.0497476
-0.0649282
-0.0166669
-0.0245823
-0.0341906
-0.0467197
-0.00878979
-0.0135972
-0.0201255
-0.0297702
-0.00238244
-0.00403215
-0.00714766
-0.0134045
501.551
329.28
296.93
301.013
303.091
424.791
694.04
660.954
605.294
552.258
505.158
159.605
87.5525
97.3328
308.176
588.759
734.783
750.205
759.7
547.218
296.342
290.65
295.146
377.035
806.366
805.167
710.602
627.629
562.915
433.879
100.248
90.9896
103.114
111.169
180.81
589.297
830.723
711.299
378.491
306.656
294.891
307.533
828.623
1030.75
926.593
779.999
642.103
602.978
324.576
87.4006
89.8225
90.8141
88.3003
84.9696
389.452
794.603
587.531
411.697
340.073
356.5
760.593
1169.42
1163.2
1014.08
751.679
347.116
338.667
209.479
83.4987
84.6069
95.4552
104.036
95.8933
437.946
742.19
553.848
929.471
966.89
1117.94
1275.34
1153.21
1022.65
833.941
608.945
337.358
235.744
197.576
98.258
122.452
368.554
452.996
209.762
366.375
599.106
557.531
1210.58
1201.6
1202.53
1216.15
806.486
257.908
217.844
638.421
753.285
618.366
450.333
343.856
412.128
573.138
613.312
585.084
284.022
284.58
1024.58
1126.9
991.247
1062.19
1005.27
330.937
60.0937
116.894
671.361
795.192
806.785
815.168
786.687
495.317
463.088
659.273
522.942
296.164
299.992
1325.53
246.838
308.236
369.86
374.889
52.4559
13.8964
12.494
208.029
747.629
851.24
859.307
864.376
653.255
299.316
312.808
348.504
371.617
600.223
1525.96
56.63
251.618
283.838
24.8282
8.03697
4.73417
2.89383
1.58371
12.5799
629.863
867.423
887.817
895.304
930.873
642.457
806.259
1165.42
1469.15
1596.64
21.0026
168.366
272.974
111.7
2.72101
1.58457
0.620537
0.0224756
-0.73995
-2.14865
15.4604
498.521
773.155
902.094
1073.57
1147.66
1309.56
1574.27
1675.04
10.0256
57.736
255.386
175.223
-0.159836
0.103157
-0.351067
-0.699851
-0.977025
-1.1105
-1.05069
-0.921728
-0.534803
-0.17643
0.544134
4.46756
18.8666
380.128
1138.9
7.1715
48.7723
255.063
226.892
37.1461
-1.10022
-0.798963
-1.08761
-1.25805
-1.25986
-1.05406
-0.779135
-0.557576
-0.532126
-0.734919
-0.610704
2.94969
22.2159
75.4524
6.7498
171.825
267.735
253.751
10.6267
-2.28251
-1.33856
-1.54156
-1.5068
-1.36102
-1.09548
-0.840178
-0.678281
-0.665924
-0.758438
-0.926643
-0.838606
40.1261
108.766
28.2343
258.123
287.677
162.839
-4.16683
-2.28909
-2.22273
-2.24678
-1.97957
-1.6082
-1.24671
-0.961172
-0.788897
-0.733039
-0.765959
-0.82656
-0.851804
98.1698
187.678
72.5156
294.042
305.147
78.6612
-1.19287
-2.11876
-2.79671
-2.74848
-2.35767
-1.79024
-1.35414
-1.04972
-0.869556
-0.780197
-0.752743
-0.776157
-0.746246
14.9144
188.293
159.579
306.613
254.851
23.7201
-0.144708
-1.70359
-2.66719
-2.67006
-2.25238
-1.69035
-1.28658
-1.02316
-0.862327
-0.764524
-0.715374
-0.703969
-0.660045
-0.136573
194.125
221.008
258.56
-0.355086
0.920656
-0.148848
-1.1519
-1.872
-2.01871
-1.70699
-1.34505
-1.07787
-0.898845
-0.778788
-0.691863
-0.630763
-0.585302
-0.513524
-0.492818
201.263
132.352
-0.877868
-0.739883
-0.442218
-0.156248
-0.527056
-0.917797
-1.10117
-1.05277
-0.959413
-0.832467
-0.740334
-0.65052
-0.586343
-0.515969
-0.445479
-0.366589
-0.299518
187.142
106.838
-0.386392
-0.32563
-0.0863067
0.186658
0.0561684
-0.212583
-0.468311
-0.608523
-0.690385
-0.653255
-0.492205
-0.318524
-0.474701
-0.403256
-0.235799
-0.207956
-0.119122
93.6979
18.5449
-0.230781
-0.0533418
0.138467
0.202059
0.0368845
-0.215655
-0.395902
-0.499803
-0.54345
-0.535609
-0.175598
-0.123619
-0.413103
0.0145406
5.21337
0.367453
0.570199
109.823
-0.313463
-0.26576
-0.278526
-0.190335
-0.123826
-0.174946
-0.272707
-0.370002
-0.441854
-0.487486
-0.416982
-0.113905
-0.0820289
-0.396273
4.26138
15.8115
10.0391
7.38516
167.912
-0.674258
-0.480344
-0.434946
-0.347484
-0.282913
-0.292518
-0.339785
-0.395589
-0.443998
-0.477465
-0.445031
-0.169244
-0.0707997
-0.0229188
14.6576
16.3638
16.3796
13.3979
174.832
-0.743196
-0.749204
-0.593111
-0.463601
-0.398366
-0.38558
-0.405174
-0.43788
-0.467812
-0.484924
-0.488222
-0.407794
-0.140456
0.876232
16.9755
16.9449
14.1155
13.8104
180.69
-1.00078
-0.771741
-0.620316
-0.520773
-0.464567
-0.445817
-0.453948
-0.457498
-0.473837
-0.491511
-0.486996
-0.461455
-0.294272
1.48031
17.615
12.0458
-0.430546
5.12507
114.104
-0.903736
-0.722511
-0.612669
-0.541468
-0.498313
-0.481938
-0.465277
-0.474031
-0.477572
-0.491453
-0.482759
-0.44484
-0.372807
1.71183
15.9655
-0.730695
-0.740118
-0.125834
0.503632
-0.770511
-0.661741
-0.587935
-0.538695
-0.508255
-0.482852
-0.471382
-0.479464
-0.49319
-0.48211
-0.472723
-0.304002
-0.326222
3.39022
-0.0840511
-0.71922
-0.676828
-0.783319
226.297
-0.655367
-0.596772
-0.551555
-0.52
-0.499251
-0.462432
-0.465732
-0.472341
-0.480628
-0.460267
-0.448111
-0.133102
-0.131253
4.73039
-0.33249
-0.61014
-0.604255
-0.126646
395.563
-0.559151
-0.532967
-0.509048
-0.491278
-0.457736
-0.44492
-0.444495
-0.466788
-0.448008
-0.429155
-0.212152
-0.0458225
0.0449121
4.87446
-0.0992186
-0.586296
-0.58752
1.93222
408.843
-0.481375
-0.473093
-0.463711
-0.456367
-0.437749
-0.431079
-0.446137
-0.433771
-0.410698
-0.385109
-4.92224e-05
-0.0572953
1.53491
3.06621
-0.54051
-0.638429
-0.632523
6.52252
421.869
-0.414481
-0.417544
-0.417965
-0.4176
-0.418988
-0.419656
-0.415123
-0.400027
-0.377813
-0.230585
-0.159943
0.631992
3.63728
-0.667731
-0.663506
-0.736016
-0.714112
10.1525
434.812
-0.356839
-0.366693
-0.373727
-0.379462
-0.384865
-0.388983
-0.386611
-0.375282
-0.357563
-0.165246
-0.20008
1.11402
3.53216
-0.810595
-0.835175
-0.871507
-0.827192
12.5429
446.137
-0.306663
-0.320375
-0.332016
-0.342775
-0.35344
-0.363479
-0.367497
-0.364906
-0.356509
-0.196378
-0.131615
2.4739
1.53216
-0.994264
-1.01939
-1.02214
-0.92448
14.2446
448.271
-0.262332
-0.278275
-0.293411
-0.30905
-0.326446
-0.345705
-0.362048
-0.363893
-0.375949
-0.38512
0.282385
5.97706
0.809418
-1.00069
-0.602913
-1.16076
-1.02897
14.1201
122.796
-0.222963
-0.240166
-0.258275
-0.278991
-0.304544
-0.33585
-0.36769
-0.304642
-0.380537
-0.43421
-0.0277905
6.18973
5.86042
3.85097
0.967714
-1.2933
-1.10801
1.39624
-1.00653
-0.187723
-0.205599
-0.226161
-0.251691
-0.285984
-0.330215
-0.378609
-0.196511
-0.334295
-0.497575
-0.706744
4.79771
5.72854
5.55118
1.95378
-1.29414
-1.04722
-0.958147
-0.88016
-0.155964
-0.173938
-0.195984
-0.225267
-0.267
-0.321544
-0.211086
-0.172196
-0.238424
-0.521363
-0.678231
-1.00794
5.03878
6.05173
0.488623
-1.02346
-0.827438
-0.727226
-0.682911
-0.127577
-0.145012
-0.167185
-0.198087
-0.243372
-0.19501
-0.0871394
-0.170336
-0.247314
-0.405313
-0.557107
-0.658648
0.759523
0.0148687
-0.768874
-0.644172
-0.544422
-0.494012
-0.476497
-0.102584
-0.118883
-0.139762
-0.169326
-0.212582
-0.117956
-0.045125
-0.133679
-0.213153
-0.251615
-0.336427
-0.368028
-0.391873
-0.373055
-0.35189
-0.327577
-0.311825
-0.312512
-0.319707
-0.0804743
-0.0952128
-0.1138
-0.139524
-0.175208
-0.212794
-0.0496286
-0.0638472
-0.126325
-0.149717
-0.0912819
-0.105748
-0.14003
-0.0920276
-0.105322
-0.138935
-0.172007
-0.200998
-0.220208
-0.0602843
-0.0731638
-0.0890447
-0.109921
-0.13774
-0.170248
-0.209566
-0.230674
-0.237578
-0.122048
-0.0285929
-0.053576
-0.0279228
0.00858802
-0.0155557
-0.0628403
-0.110872
-0.149047
-0.170999
-0.0409219
-0.0515771
-0.0645132
-0.0802822
-0.10076
-0.12136
-0.142969
-0.162771
-0.173127
-0.163053
-0.114096
-0.0552843
-0.000888787
0.0161748
-0.0057311
-0.0526615
-0.103803
-0.144538
-0.166989
-0.0213741
-0.029082
-0.0383344
-0.0492441
-0.061248
-0.0723491
-0.0815612
-0.0842978
-0.0757216
-0.0575575
-0.0386597
-0.0143626
0.000645327
-0.00596897
-0.0390576
-0.0925701
-0.148017
-0.191466
-0.213473
)
;

boundaryField
{
    leftWall
    {
        type            fixedFluxPressure;
        gradient        uniform 0;
        value           nonuniform List<scalar> 
50
(
561.843
561.032
558.064
553.583
548.446
543.13
537.585
531.222
233.691
10.5751
2.09045
1.45265
1.28315
1.18834
1.1106
1.0284
0.959727
0.906243
0.85405
0.802071
0.753731
0.708726
0.666235
0.626041
0.587964
0.551786
0.517309
0.484367
0.45283
0.422588
0.393565
0.365699
0.338941
0.313251
0.288593
0.264928
0.242214
0.220404
0.19945
0.179295
0.159885
0.141157
0.123047
0.105486
0.0884064
0.0717384
0.0554013
0.0393165
0.0234671
0.007661
)
;
    }
    rightWall
    {
        type            fixedFluxPressure;
        gradient        uniform 0;
        value           nonuniform List<scalar> 
50
(
997.882
998.438
969.92
936.405
845.392
789.641
790.882
777.025
759.7
711.299
587.531
553.848
557.531
1024.58
1325.53
1525.96
1596.64
1675.04
1138.9
75.4524
108.766
187.678
188.293
194.125
201.263
187.142
93.6979
109.823
167.912
174.832
180.69
114.104
0.503632
226.297
395.563
408.843
421.869
434.812
446.137
448.271
122.796
-1.00653
-0.88016
-0.682911
-0.476497
-0.319707
-0.220208
-0.170999
-0.166989
-0.213473
)
;
    }
    lowerWall
    {
        type            fixedFluxPressure;
        gradient        uniform 0;
        value           nonuniform List<scalar> 
62
(
561.843
562.277
565.086
570.954
581.982
600.125
624.468
650.508
675.412
699.253
722.315
744.545
765.786
785.808
804.306
820.959
833.017
840.116
844.684
852.864
875.194
905.854
916.107
916.107
911.024
904.53
898.177
892.856
886.933
877.072
867.318
914.046
905.346
1025.46
262.105
1035.52
1009.69
1006.47
1071.03
1164.65
1175.96
1082.45
887.917
1035.52
914.205
934.162
963.868
865.07
701.275
592.452
605.047
726.189
897.248
972.179
995.197
1010.1
975.033
905.136
861.389
873.605
938.613
997.882
)
;
    }
    atmosphere
    {
        type            totalPressure;
        rho             rho;
        psi             none;
        gamma           1;
        p0              uniform 0;
        value           nonuniform List<scalar> 
46
(
0
0
0
0
0
0
0
0
0
0
0
0
0
0
0
0
0
0
0
0
0
0
0
0
0
-0.00116547
-0.00538673
-0.0111923
-0.0167472
-0.0229831
-0.0302465
-0.0386888
-0.0462246
-0.0501391
-0.0496213
-0.0424308
-0.0272402
-0.0104926
-0.00316515
-0.00544927
-0.024905
-0.0738835
-0.138928
-0.199016
-0.245194
-0.264322
)
;
    }
    defaultFaces
    {
        type            empty;
    }
}


// ************************************************************************* //
