/*--------------------------------*- C++ -*----------------------------------*\
| =========                 |                                                 |
| \\      /  F ield         | OpenFOAM: The Open Source CFD Toolbox           |
|  \\    /   O peration     | Version:  2206                                  |
|   \\  /    A nd           | Website:  www.openfoam.com                      |
|    \\/     M anipulation  |                                                 |
\*---------------------------------------------------------------------------*/
FoamFile
{
    version     2.0;
    format      ascii;
    arch        "LSB;label=32;scalar=64";
    class       surfaceScalarField;
    location    "0.725";
    object      phi;
}
// * * * * * * * * * * * * * * * * * * * * * * * * * * * * * * * * * * * * * //

dimensions      [0 3 -1 0 0 0 0];

oriented        oriented;

internalField   nonuniform List<scalar> 
4432
(
-4.19304e-06
4.19304e-06
-8.63197e-06
4.43892e-06
-1.2085e-05
3.45309e-06
-1.48866e-05
2.80155e-06
-1.6689e-05
1.80244e-06
-1.64891e-05
-1.99964e-07
-1.43319e-05
-2.15719e-06
-1.16981e-05
-2.63382e-06
-9.99245e-06
-1.70561e-06
-9.51346e-06
-4.79002e-07
-1.00362e-05
5.2273e-07
-1.12833e-05
1.24709e-06
-1.30198e-05
1.73652e-06
-1.51667e-05
2.14691e-06
-1.74981e-05
2.33137e-06
-1.91516e-05
1.65355e-06
-2.05548e-05
1.40315e-06
-2.44906e-05
3.93582e-06
-3.03761e-05
5.88547e-06
-3.17861e-05
1.41005e-06
-2.50674e-05
-6.71875e-06
-1.2182e-05
-1.28854e-05
-1.2182e-05
-5.62322e-06
9.81627e-06
-9.97279e-06
8.78849e-06
-1.29792e-05
6.45947e-06
-1.55942e-05
5.41663e-06
-1.73519e-05
3.56012e-06
-1.71518e-05
-4.00138e-07
-1.48855e-05
-4.42347e-06
-1.19575e-05
-5.56179e-06
-1.00109e-05
-3.65224e-06
-9.39143e-06
-1.09848e-06
-9.64291e-06
7.74201e-07
-1.04267e-05
2.03091e-06
-1.16238e-05
2.93358e-06
-1.33074e-05
3.83057e-06
-1.57371e-05
4.76097e-06
-1.93682e-05
5.28466e-06
-2.41874e-05
6.22233e-06
-2.84904e-05
8.23886e-06
-2.93799e-05
6.775e-06
-2.5359e-05
-2.6109e-06
-1.81223e-05
-1.39554e-05
-8.78778e-06
-2.22199e-05
-2.09698e-05
-4.87155e-06
1.46878e-05
-8.61288e-06
1.25298e-05
-1.16997e-05
9.54632e-06
-1.48783e-05
8.5952e-06
-1.73035e-05
5.98534e-06
-1.74708e-05
-2.32892e-07
-1.53988e-05
-6.49544e-06
-1.25352e-05
-8.42539e-06
-1.05129e-05
-5.67454e-06
-9.8223e-06
-1.7891e-06
-1.0009e-05
9.60924e-07
-1.05224e-05
2.54427e-06
-1.10517e-05
3.46289e-06
-1.15177e-05
4.29662e-06
-1.21502e-05
5.39346e-06
-1.3674e-05
6.80846e-06
-1.61876e-05
8.73592e-06
-1.78224e-05
9.87361e-06
-1.66327e-05
5.58536e-06
-1.32012e-05
-6.04245e-06
-8.74035e-06
-1.84163e-05
-3.51693e-06
-2.74433e-05
-2.44867e-05
-3.52715e-06
1.8215e-05
-6.64468e-06
1.56474e-05
-9.62548e-06
1.25271e-05
-1.26004e-05
1.15702e-05
-1.47646e-05
8.14945e-06
-1.51379e-05
1.40399e-07
-1.39429e-05
-7.69041e-06
-1.22646e-05
-1.01037e-05
-1.09885e-05
-6.95062e-06
-1.05237e-05
-2.25391e-06
-1.0801e-05
1.23821e-06
-1.1381e-05
3.12429e-06
-1.18566e-05
3.93853e-06
-1.19547e-05
4.39463e-06
-1.15953e-05
5.03406e-06
-1.08645e-05
6.07768e-06
-9.73015e-06
7.60157e-06
-7.65738e-06
7.80084e-06
-4.779e-06
2.70698e-06
-2.47552e-06
-8.34593e-06
-1.01058e-06
-1.98812e-05
4.82935e-07
-2.89368e-05
-2.40038e-05
-1.761e-06
1.9976e-05
-3.73397e-06
1.76203e-05
-5.89156e-06
1.46847e-05
-7.7099e-06
1.33885e-05
-8.70691e-06
9.14647e-06
-9.12551e-06
5.5901e-07
-9.5438e-06
-7.27213e-06
-1.02825e-05
-9.36501e-06
-1.09278e-05
-6.30528e-06
-1.12983e-05
-1.88339e-06
-1.1756e-05
1.69591e-06
-1.2319e-05
3.68723e-06
-1.27435e-05
4.36309e-06
-1.28039e-05
4.45502e-06
-1.23399e-05
4.57009e-06
-1.10428e-05
4.78054e-06
-8.46478e-06
5.02355e-06
-4.68967e-06
4.02573e-06
-1.13207e-06
-8.50621e-07
9.7557e-07
-1.04536e-05
1.09046e-06
-1.99961e-05
1.72952e-06
-2.95759e-05
-2.22743e-05
4.26445e-07
1.95495e-05
2.65085e-07
1.77817e-05
-4.86872e-07
1.54367e-05
-8.51966e-07
1.37536e-05
-2.41075e-07
8.53558e-06
-5.10793e-07
8.28732e-07
-3.22274e-06
-4.56018e-06
-7.07416e-06
-5.51359e-06
-1.02176e-05
-3.16179e-06
-1.19248e-05
-1.76254e-07
-1.27897e-05
2.56084e-06
-1.3341e-05
4.23848e-06
-1.35992e-05
4.62136e-06
-1.35004e-05
4.3562e-06
-1.30276e-05
4.09726e-06
-1.19359e-05
3.68885e-06
-9.7865e-06
2.87416e-06
-6.5932e-06
8.32417e-07
-3.36101e-06
-4.08281e-06
-1.47964e-06
-1.2335e-05
-6.69827e-07
-2.08059e-05
9.32388e-07
-3.11781e-05
-2.13419e-05
2.39261e-06
1.71569e-05
4.24957e-06
1.59247e-05
6.0493e-06
1.3637e-05
8.14685e-06
1.1656e-05
9.21445e-06
7.46798e-06
7.25683e-06
2.78635e-06
1.89228e-06
8.04379e-07
-4.42359e-06
8.02276e-07
-9.40525e-06
1.81987e-06
-1.2385e-05
2.80347e-06
-1.38483e-05
4.0242e-06
-1.44382e-05
4.82835e-06
-1.44802e-05
4.66337e-06
-1.41078e-05
3.98378e-06
-1.34881e-05
3.47755e-06
-1.25108e-05
2.71161e-06
-1.09005e-05
1.26385e-06
-8.63492e-06
-1.43319e-06
-6.42034e-06
-6.29739e-06
-5.10175e-06
-1.36535e-05
-3.79942e-06
-2.21082e-05
-2.15079e-06
-3.28267e-05
-2.34927e-05
4.39355e-06
1.27634e-05
9.60601e-06
1.07123e-05
1.42289e-05
9.01409e-06
1.72955e-05
8.58942e-06
1.6569e-05
8.19449e-06
1.08448e-05
8.51058e-06
2.60475e-06
9.04441e-06
-4.53559e-06
7.94262e-06
-9.3246e-06
6.60888e-06
-1.24765e-05
5.95537e-06
-1.44949e-05
6.0426e-06
-1.54293e-05
5.76279e-06
-1.54738e-05
4.7078e-06
-1.48792e-05
3.38917e-06
-1.40566e-05
2.65503e-06
-1.3007e-05
1.66201e-06
-1.15753e-05
-1.67899e-07
-9.79761e-06
-3.21089e-06
-8.31346e-06
-7.78154e-06
-7.75013e-06
-1.42169e-05
-7.71329e-06
-2.21451e-05
-7.96946e-06
-3.25706e-05
-3.14621e-05
3.93984e-05
-3.93984e-05
2.19185e-05
1.74799e-05
-3.63237e-06
2.55509e-05
-5.28084e-05
4.91761e-05
-0.000108959
5.61508e-05
-0.000145655
3.66958e-05
-0.00016098
1.53252e-05
-0.000161873
8.92293e-07
-0.000153827
-8.046e-06
-0.000137738
-1.60887e-05
-0.000120687
-1.70504e-05
-0.000104394
-1.62939e-05
-8.67364e-05
-1.76572e-05
-7.32033e-05
-1.35331e-05
-6.50962e-05
-8.10709e-06
-5.61899e-05
-8.90634e-06
-3.98355e-05
-1.63544e-05
-1.36583e-05
-2.61772e-05
-1.36583e-05
1.05433e-05
-4.99417e-05
-1.81454e-05
4.61686e-05
-7.53993e-05
8.28048e-05
-0.000133197
0.000106973
-0.000168992
9.19465e-05
-0.00017601
4.37136e-05
-0.000168368
7.68348e-06
-0.000156858
-1.06179e-05
-0.000136261
-2.8643e-05
-0.000103882
-4.84679e-05
-7.65656e-05
-4.43668e-05
-6.10985e-05
-3.17609e-05
-5.64574e-05
-2.22982e-05
-6.21689e-05
-7.82168e-06
-6.80834e-05
-2.19254e-06
-6.67126e-05
-1.02772e-05
-5.68576e-05
-2.62094e-05
-3.29731e-05
-5.00618e-05
-4.66313e-05
-1.78824e-05
-3.20593e-05
-6.22138e-05
9.05001e-05
-0.000121182
0.000141773
-0.000169011
0.000154802
-0.000201148
0.000124084
-0.000221448
6.40138e-05
-0.000211949
-1.81568e-06
-0.000163112
-5.94552e-05
-9.18993e-05
-9.98554e-05
-1.41737e-05
-0.000126193
2.50844e-05
-8.36249e-05
4.23169e-05
-4.89934e-05
5.44418e-05
-3.44231e-05
4.90959e-05
-2.47585e-06
2.30298e-05
2.38735e-05
-1.28416e-05
2.55943e-05
-3.71652e-05
-1.88579e-06
-3.08395e-05
-5.63875e-05
-7.74708e-05
-4.30003e-05
1.0941e-05
-9.38646e-05
0.000141364
-0.000144067
0.000191975
-0.000179189
0.000189924
-0.000194634
0.000139529
-0.00016666
3.60402e-05
-0.00011228
-5.61963e-05
-5.01395e-05
-0.000121595
1.28597e-05
-0.000162855
4.72737e-05
-0.000160607
7.77522e-05
-0.000114103
8.96476e-05
-6.08889e-05
8.62544e-05
-3.10298e-05
8.29661e-05
8.12477e-07
8.13691e-05
2.54706e-05
7.11595e-05
3.58038e-05
3.49833e-05
3.42904e-05
-5.22697e-06
-1.61772e-05
-8.26977e-05
-5.69813e-05
6.79224e-05
-0.000108558
0.000192941
-0.000148355
0.000231772
-0.000170014
0.000211583
-0.000147422
0.000116936
-9.11747e-05
-2.0207e-05
-3.27838e-05
-0.000114587
1.89345e-05
-0.000173314
5.16138e-05
-0.000195534
6.8375e-05
-0.000177369
8.98448e-05
-0.000135573
0.000109904
-8.09485e-05
0.000109942
-3.10679e-05
9.92584e-05
1.14966e-05
8.87692e-05
3.59598e-05
8.34276e-05
4.11453e-05
6.89229e-05
4.87951e-05
2.51058e-05
2.76399e-05
-5.7592e-05
-6.26455e-05
0.000130568
-0.00011005
0.000240346
-0.000141366
0.000263088
-0.000140624
0.000210841
-9.07984e-05
6.71108e-05
-3.38574e-05
-7.71481e-05
1.82258e-05
-0.00016667
5.20385e-05
-0.000207126
6.25974e-05
-0.000206093
6.94573e-05
-0.000184228
8.42091e-05
-0.000150325
0.000100888
-9.76272e-05
9.88248e-05
-2.90049e-05
8.91876e-05
2.11337e-05
7.8886e-05
4.62614e-05
7.23495e-05
4.76819e-05
6.42762e-05
5.68685e-05
3.48547e-05
5.70614e-05
-2.27372e-05
-6.36553e-05
0.000194223
-0.000102005
0.000278696
-0.000124068
0.000285151
-0.000101347
0.00018812
-4.14075e-05
7.1709e-06
9.50232e-06
-0.000128058
4.36962e-05
-0.000200864
5.29876e-05
-0.000216418
5.42355e-05
-0.000207341
5.67535e-05
-0.000186746
6.48501e-05
-0.000158422
7.69345e-05
-0.000109712
7.23502e-05
-2.44206e-05
6.33071e-05
3.01768e-05
6.00604e-05
4.95081e-05
5.69804e-05
5.07619e-05
5.1816e-05
6.20328e-05
3.15524e-05
7.73251e-05
8.81515e-06
-6.24322e-05
0.000256655
-9.27816e-05
0.000309045
-9.93266e-05
0.000291696
-5.80532e-05
0.000146847
-6.21199e-06
-4.46703e-05
2.91151e-05
-0.000163385
4.19919e-05
-0.000213741
4.25987e-05
-0.000217024
4.14871e-05
-0.000206229
4.08892e-05
-0.000186149
4.23529e-05
-0.000159885
4.9418e-05
-0.000116777
3.56382e-05
-1.06408e-05
2.99422e-05
3.58729e-05
4.05749e-05
3.88754e-05
4.38564e-05
4.74804e-05
4.03231e-05
6.55661e-05
2.34485e-05
9.41997e-05
3.22636e-05
7.10115e-06
5.66221e-06
6.64056e-06
1.11728e-05
1.18346e-06
1.44712e-05
-5.68854e-06
1.54614e-05
-1.23553e-05
1.48613e-05
-1.78707e-05
1.40259e-05
-2.16608e-05
1.28346e-05
-2.41861e-05
1.04679e-05
-2.6398e-05
8.82083e-06
-2.88564e-05
8.41371e-06
-3.15971e-05
8.78331e-06
-3.36409e-05
7.80663e-06
-3.37731e-05
4.84e-06
-3.21902e-05
1.80619e-06
-3.06462e-05
1.11108e-06
-2.91485e-05
1.64308e-07
-2.70193e-05
-2.29711e-06
-2.39275e-05
-6.30273e-06
-2.13764e-05
-1.03326e-05
-2.1043e-05
-1.45504e-05
-2.40281e-05
-1.91599e-05
-3.30067e-05
-2.3592e-05
-1.8195e-05
-4.62738e-05
-0.000106039
0.000111701
-0.000111823
1.69569e-05
-9.50554e-05
-2.29659e-06
-8.20391e-05
2.44513e-06
-7.45665e-05
7.38871e-06
-6.9897e-05
9.35637e-06
-6.46515e-05
7.58915e-06
-5.76767e-05
3.49303e-06
-4.90956e-05
2.3979e-07
-4.1824e-05
1.14205e-06
-3.62916e-05
3.2509e-06
-3.18049e-05
3.32e-06
-2.87072e-05
1.7423e-06
-2.76422e-05
7.41131e-07
-2.78183e-05
1.28718e-06
-2.79932e-05
3.39179e-07
-2.64928e-05
-3.79743e-06
-2.31872e-05
-9.60839e-06
-2.08357e-05
-1.26841e-05
-2.03288e-05
-1.50572e-05
-2.18601e-05
-1.76286e-05
-2.57573e-05
-1.96948e-05
-1.59346e-05
-2.80178e-05
-7.00594e-05
0.000181761
-0.000124559
7.14562e-05
-0.000168977
4.21213e-05
-0.000199897
3.33655e-05
-0.000205707
1.31988e-05
-0.000190732
-5.61933e-06
-0.000166472
-1.66712e-05
-0.000141532
-2.14462e-05
-0.00011899
-2.23024e-05
-9.83489e-05
-1.94991e-05
-8.21491e-05
-1.29489e-05
-7.1334e-05
-7.49519e-06
-6.0542e-05
-9.04969e-06
-4.72136e-05
-1.25873e-05
-3.4681e-05
-1.12454e-05
-2.73868e-05
-6.95498e-06
-2.38461e-05
-7.33813e-06
-2.32771e-05
-1.01775e-05
-2.29898e-05
-1.29714e-05
-2.15296e-05
-1.65174e-05
-1.97153e-05
-1.94428e-05
-1.85654e-05
-2.08447e-05
-1.76577e-05
-1.68423e-05
-3.95424e-05
0.000221303
-8.14961e-05
0.00011341
-0.000115767
7.63919e-05
-0.000136627
5.42257e-05
-0.000152326
2.88974e-05
-0.000168993
1.10476e-05
-0.000188032
2.3676e-06
-0.000215935
6.45641e-06
-0.00024878
1.05429e-05
-0.000278071
9.79176e-06
-0.000293347
2.32718e-06
-0.000281722
-1.91203e-05
-0.000245759
-4.50125e-05
-0.000200095
-5.82517e-05
-0.000158433
-5.29068e-05
-0.000138901
-2.64873e-05
-0.000129452
-1.67873e-05
-0.000119921
-1.97079e-05
-0.000104735
-2.81571e-05
-8.62907e-05
-3.49622e-05
-6.71447e-05
-3.85888e-05
-5.07378e-05
-3.72517e-05
-3.25064e-05
-3.5889e-05
2.36991e-06
0.000218933
-2.5477e-05
0.000141256
-3.75219e-05
8.84365e-05
-3.83021e-05
5.50057e-05
-4.18617e-05
3.24569e-05
-5.13849e-05
2.05707e-05
-6.53411e-05
1.63236e-05
-8.81646e-05
2.92799e-05
-0.000126376
4.87539e-05
-0.000170989
5.44055e-05
-0.000218656
4.99941e-05
-0.000275877
3.81001e-05
-0.000335309
1.44203e-05
-0.000373115
-2.04457e-05
-0.000380761
-4.52616e-05
-0.000354691
-5.25569e-05
-0.000318419
-5.30592e-05
-0.000281878
-5.62491e-05
-0.000237854
-7.21813e-05
-0.000193977
-7.88395e-05
-0.000158558
-7.40072e-05
-0.00012802
-6.77896e-05
-5.90416e-05
-0.000101485
4.22956e-05
0.000176637
2.75979e-05
0.000155954
1.93207e-05
9.67136e-05
1.76093e-05
5.6717e-05
1.0753e-05
3.9313e-05
-5.00719e-06
3.63308e-05
-1.9414e-05
3.07304e-05
-2.67914e-05
3.66573e-05
-3.55068e-05
5.74693e-05
-5.16237e-05
7.05224e-05
-6.92254e-05
6.75958e-05
-9.25679e-05
6.14425e-05
-0.000132255
5.41074e-05
-0.000184658
3.19571e-05
-0.000231806
1.8863e-06
-0.000260577
-2.37857e-05
-0.00026421
-4.94256e-05
-0.000225923
-9.45361e-05
-0.00016722
-0.000130885
-0.000126651
-0.000119408
-0.000118949
-8.17099e-05
-0.000131685
-5.50537e-05
-4.23332e-05
-0.000148393
4.35156e-05
0.000133121
5.44709e-05
0.000144999
4.91571e-05
0.000102027
3.95666e-05
6.63075e-05
2.77894e-05
5.10902e-05
1.45194e-05
4.96009e-05
-9.69713e-07
4.62196e-05
-1.1398e-05
4.70857e-05
-1.01005e-05
5.61719e-05
-7.43131e-06
6.78531e-05
-1.05786e-05
7.07431e-05
-1.49055e-05
6.57695e-05
-2.09585e-05
6.01603e-05
-3.88039e-05
4.98024e-05
-7.04632e-05
3.35456e-05
-0.000106919
1.26703e-05
-0.000139279
-1.70654e-05
-0.000164775
-6.90406e-05
-0.000190056
-0.000105604
-0.000223557
-8.59068e-05
-0.000249526
-5.57413e-05
-0.000257146
-4.74331e-05
-2.34736e-05
-0.000276006
2.32519e-05
0.000109869
4.59112e-05
0.000122339
4.91563e-05
9.87823e-05
4.01259e-05
7.53379e-05
2.7659e-05
6.35572e-05
1.64473e-05
6.08128e-05
3.93206e-06
5.8735e-05
-7.28016e-06
5.82979e-05
-1.0224e-05
5.91156e-05
-6.58248e-06
6.42114e-05
-4.35809e-06
6.85187e-05
-3.73197e-06
6.51435e-05
-6.96993e-07
5.71253e-05
-1.78422e-06
5.08896e-05
-1.44159e-05
4.61774e-05
-3.67507e-05
3.50053e-05
-7.07622e-05
1.69461e-05
-0.000130307
-9.49626e-06
-0.000208113
-2.77969e-05
-0.000275376
-1.86446e-05
-0.0003077
-2.34175e-05
-0.000332945
-2.21874e-05
-8.03528e-06
-0.000348384
6.70323e-06
0.000103166
2.71994e-05
0.000101843
3.42459e-05
9.17358e-05
2.97138e-05
7.987e-05
2.10318e-05
7.22391e-05
1.28519e-05
6.89927e-05
4.13894e-06
6.7448e-05
-4.23436e-06
6.66711e-05
-9.50934e-06
6.43905e-05
-9.67902e-06
6.4381e-05
-7.15043e-06
6.59902e-05
-5.68699e-06
6.36801e-05
-5.42519e-06
5.68636e-05
-6.3057e-06
5.17702e-05
-1.11608e-05
5.10325e-05
-2.4834e-05
4.86786e-05
-5.3302e-05
4.54142e-05
-0.000106745
4.39466e-05
-0.000184642
5.01003e-05
-0.000252453
4.91664e-05
-0.00029716
2.12893e-05
-0.00030733
-1.20167e-05
-4.88814e-06
-0.000310478
1.55683e-06
0.000101609
1.43839e-05
8.90162e-05
2.01533e-05
8.59664e-05
1.89264e-05
8.10969e-05
1.46164e-05
7.65491e-05
9.90084e-06
7.37083e-05
4.76657e-06
7.25823e-05
-2.87221e-07
7.17248e-05
-4.95803e-06
6.90613e-05
-7.27594e-06
6.66989e-05
-6.57674e-06
6.52911e-05
-5.63248e-06
6.27358e-05
-7.17808e-06
5.84092e-05
-1.08869e-05
5.54791e-05
-1.57915e-05
5.59371e-05
-2.41253e-05
5.70123e-05
-3.75869e-05
5.88758e-05
-5.71563e-05
6.35159e-05
-8.42938e-05
7.72378e-05
-0.000125687
9.05596e-05
-0.000162451
5.80532e-05
-0.000168128
-6.34011e-06
-2.08812e-05
-0.000152134
1.52082e-06
0.000100089
8.1939e-06
8.23431e-05
1.18322e-05
8.23279e-05
1.21436e-05
8.07854e-05
1.06607e-05
7.80319e-05
8.53971e-06
7.58293e-05
6.16002e-06
7.4962e-05
3.63107e-06
7.42537e-05
5.83493e-07
7.21089e-05
-1.91448e-06
6.9197e-05
-2.85982e-06
6.62366e-05
-3.40854e-06
6.32845e-05
-5.69963e-06
6.07004e-05
-9.82585e-06
5.96055e-05
-1.46036e-05
6.07149e-05
-1.98409e-05
6.22496e-05
-2.48739e-05
6.39087e-05
-2.85377e-05
6.71797e-05
-2.57192e-05
7.44194e-05
-1.54817e-05
8.03222e-05
-2.50966e-05
6.76681e-05
-8.62465e-05
5.48098e-05
2.01525e-05
-0.00012728
1.8348e-06
9.82537e-05
5.3071e-06
7.88707e-05
7.69864e-06
7.99363e-05
8.58484e-06
7.98992e-05
8.4432e-06
7.81736e-05
7.75022e-06
7.65223e-05
6.95623e-06
7.57559e-05
6.06384e-06
7.51459e-05
4.6062e-06
7.35664e-05
2.82983e-06
7.09735e-05
1.11043e-06
6.79559e-05
-8.44466e-07
6.52393e-05
-3.75713e-06
6.3613e-05
-7.50756e-06
6.33557e-05
-1.12172e-05
6.44246e-05
-1.43437e-05
6.5376e-05
-1.60136e-05
6.55785e-05
-1.51887e-05
6.63549e-05
-8.90719e-06
6.8138e-05
7.4765e-06
6.39388e-05
2.44021e-05
5.07427e-05
3.26497e-06
7.59468e-05
6.83373e-05
-4.49199e-05
1.86098e-06
9.63927e-05
3.85198e-06
7.68795e-05
5.5842e-06
7.8204e-05
6.57086e-06
7.89125e-05
6.91275e-06
7.78317e-05
6.8618e-06
7.65732e-05
6.78132e-06
7.58363e-05
6.69503e-06
7.52322e-05
6.18812e-06
7.40733e-05
5.03022e-06
7.21315e-05
3.16813e-06
6.98181e-05
5.89891e-07
6.78177e-05
-2.55238e-06
6.67554e-05
-5.85648e-06
6.66599e-05
-8.68222e-06
6.72505e-05
-1.07138e-05
6.74077e-05
-1.15468e-05
6.64115e-05
-1.02165e-05
6.50245e-05
-4.85584e-06
6.27774e-05
5.81229e-06
5.32708e-05
1.59903e-05
4.05647e-05
2.24304e-05
6.95066e-05
7.60659e-05
1.47018e-05
1.84392e-06
9.45487e-05
3.11187e-06
7.56114e-05
4.3813e-06
7.69345e-05
5.25561e-06
7.80382e-05
5.71196e-06
7.73754e-05
5.88242e-06
7.64026e-05
5.9998e-06
7.57186e-05
6.0984e-06
7.51336e-05
5.87056e-06
7.4301e-05
4.97824e-06
7.30237e-05
3.2423e-06
7.15539e-05
7.32752e-07
7.03272e-05
-2.20055e-06
6.96886e-05
-5.10633e-06
6.95657e-05
-7.56662e-06
6.97108e-05
-9.5125e-06
6.93538e-05
-1.0781e-05
6.768e-05
-1.05013e-05
6.47452e-05
-7.88936e-06
6.01655e-05
-6.79182e-06
5.21734e-05
-1.8113e-05
5.18859e-05
-2.0979e-05
7.23725e-05
5.44434e-05
6.43637e-07
1.76284e-06
9.27858e-05
2.72345e-06
7.46507e-05
3.63786e-06
7.602e-05
4.35708e-06
7.7319e-05
4.80643e-06
7.6926e-05
5.01394e-06
7.6195e-05
5.09794e-06
7.56343e-05
5.09454e-06
7.51368e-05
4.81766e-06
7.45779e-05
3.9896e-06
7.38519e-05
2.45259e-06
7.3091e-05
2.77685e-07
7.25023e-05
-2.26995e-06
7.22365e-05
-4.90915e-06
7.22049e-05
-7.46571e-06
7.22673e-05
-1.00635e-05
7.19516e-05
-1.27809e-05
7.03974e-05
-1.53497e-05
6.7314e-05
-1.89916e-05
6.38076e-05
-3.05637e-05
6.37456e-05
-5.65461e-05
7.78682e-05
-7.49916e-05
9.08179e-05
4.37634e-05
-6.43117e-05
1.61209e-06
9.11736e-05
2.46379e-06
7.37989e-05
3.14818e-06
7.53356e-05
3.74293e-06
7.67242e-05
4.16551e-06
7.65033e-05
4.36724e-06
7.59934e-05
4.39674e-06
7.56049e-05
4.27035e-06
7.5263e-05
3.89484e-06
7.49534e-05
3.0982e-06
7.46484e-05
1.78035e-06
7.44088e-05
-3.01501e-08
7.43128e-05
-2.21609e-06
7.44224e-05
-4.70553e-06
7.46944e-05
-7.52798e-06
7.50898e-05
-1.0961e-05
7.53846e-05
-1.54854e-05
7.49216e-05
-2.16469e-05
7.34756e-05
-3.1537e-05
7.36977e-05
-5.09121e-05
8.31208e-05
-8.11535e-05
0.00010811
-0.000108439
0.000118103
5.39559e-05
-0.000118632
1.43299e-06
8.97405e-05
2.24757e-06
7.2984e-05
2.81104e-06
7.4772e-05
3.3318e-06
7.62035e-05
3.74128e-06
7.60936e-05
3.95755e-06
7.57766e-05
3.99153e-06
7.55709e-05
3.83565e-06
7.54186e-05
3.44714e-06
7.5342e-05
2.7391e-06
7.53567e-05
1.65438e-06
7.54936e-05
1.76327e-07
7.57908e-05
-1.69e-06
7.62886e-05
-4.0027e-06
7.7007e-05
-6.89414e-06
7.79812e-05
-1.06954e-05
7.91859e-05
-1.61242e-05
8.03505e-05
-2.40544e-05
8.14061e-05
-3.5266e-05
8.49094e-05
-5.05717e-05
9.84264e-05
-6.78299e-05
0.000125368
-8.14529e-05
0.000131727
7.57383e-05
-0.000103235
1.27745e-06
8.8463e-05
2.05658e-06
7.22049e-05
2.57297e-06
7.42555e-05
3.07227e-06
7.57043e-05
3.49175e-06
7.56745e-05
3.75181e-06
7.55165e-05
3.84815e-06
7.54747e-05
3.75892e-06
7.55078e-05
3.46104e-06
7.56395e-05
2.91511e-06
7.59023e-05
2.08093e-06
7.6328e-05
9.20657e-07
7.69511e-05
-6.10704e-07
7.78199e-05
-2.60308e-06
7.89994e-05
-5.19576e-06
8.05739e-05
-8.64964e-06
8.26399e-05
-1.35464e-05
8.52472e-05
-2.06028e-05
8.84625e-05
-2.93524e-05
9.36592e-05
-3.65886e-05
0.000105663
-3.86685e-05
0.000127448
-4.28688e-05
0.000135927
9.38654e-05
-6.09957e-05
1.17278e-06
8.72901e-05
1.90267e-06
7.14752e-05
2.41759e-06
7.37408e-05
2.93386e-06
7.51878e-05
3.38558e-06
7.52227e-05
3.71126e-06
7.51908e-05
3.90338e-06
7.52823e-05
3.93991e-06
7.54714e-05
3.80268e-06
7.57769e-05
3.46734e-06
7.62375e-05
2.9057e-06
7.68895e-05
2.08013e-06
7.77767e-05
9.3562e-07
7.89645e-05
-5.87972e-07
8.05231e-05
-2.59027e-06
8.25763e-05
-5.21135e-06
8.52611e-05
-8.72487e-06
8.87609e-05
-1.34967e-05
9.32345e-05
-1.89284e-05
9.9091e-05
-2.13803e-05
0.000108114
-1.5972e-05
0.000122039
-1.05255e-05
0.00013048
0.000106962
-2.36216e-05
1.11794e-06
8.6172e-05
1.79719e-06
7.07958e-05
2.33639e-06
7.32018e-05
2.89254e-06
7.46317e-05
3.39366e-06
7.47215e-05
3.79838e-06
7.47864e-05
4.10166e-06
7.49788e-05
4.28851e-06
7.52844e-05
4.3404e-06
7.57249e-05
4.24349e-06
7.63346e-05
3.97825e-06
7.71548e-05
3.51457e-06
7.82405e-05
2.82199e-06
7.96573e-05
1.85731e-06
8.14879e-05
5.81734e-07
8.3852e-05
-1.05724e-06
8.69002e-05
-3.13092e-06
9.08347e-05
-5.71688e-06
9.58206e-05
-8.55756e-06
0.000101932
-9.76888e-06
0.000109326
-5.8449e-06
0.000118115
-2.07603e-07
0.000124843
0.000113526
-6.77222e-06
1.09891e-06
8.50735e-05
1.74024e-06
7.01546e-05
2.31961e-06
7.26226e-05
2.92855e-06
7.40229e-05
3.49362e-06
7.41562e-05
3.98909e-06
7.42909e-05
4.41232e-06
7.45556e-05
4.75617e-06
7.49405e-05
5.01129e-06
7.54697e-05
5.16841e-06
7.61775e-05
5.21122e-06
7.71121e-05
5.13193e-06
7.83197e-05
4.91521e-06
7.98742e-05
4.5432e-06
8.18599e-05
4.00958e-06
8.43857e-05
3.30932e-06
8.76007e-05
2.45148e-06
9.16927e-05
1.42926e-06
9.68428e-05
2.19612e-07
0.000103141
-8.99716e-07
0.000110445
-9.44279e-07
0.00011816
-6.30697e-07
0.00012453
0.00012295
-1.00542e-05
1.10241e-06
8.39711e-05
1.72425e-06
6.9533e-05
2.35342e-06
7.19933e-05
3.02291e-06
7.33535e-05
3.66167e-06
7.35175e-05
4.25517e-06
7.36974e-05
4.80492e-06
7.40059e-05
5.30959e-06
7.4436e-05
5.76769e-06
7.50117e-05
6.17837e-06
7.57669e-05
6.54169e-06
7.67489e-05
6.85316e-06
7.80083e-05
7.12003e-06
7.96075e-05
7.34918e-06
8.16308e-05
7.55279e-06
8.41821e-05
7.74926e-06
8.74043e-05
7.95867e-06
9.14834e-05
8.18016e-06
9.66214e-05
8.30018e-06
0.000103021
7.90939e-06
0.000110836
5.91775e-06
0.000120152
-6.96932e-07
0.000131144
0.000146468
-2.42147e-05
1.1202e-06
8.28509e-05
1.73933e-06
6.8914e-05
2.42317e-06
7.13094e-05
3.15683e-06
7.26198e-05
3.87452e-06
7.27999e-05
4.56919e-06
7.30028e-05
5.24662e-06
7.33285e-05
5.91177e-06
7.37709e-05
6.57065e-06
7.43529e-05
7.23036e-06
7.51074e-05
7.9014e-06
7.6078e-05
8.59793e-06
7.73119e-05
9.33845e-06
7.88671e-05
1.01498e-05
8.08194e-05
1.10678e-05
8.3264e-05
1.21391e-05
8.63331e-05
1.34199e-05
9.02027e-05
1.49463e-05
9.5095e-05
1.66758e-05
0.000101292
1.83198e-05
0.000109192
1.89571e-05
0.000119515
1.65586e-05
0.000133543
0.000155849
7.1779e-06
1.14711e-06
8.17037e-05
1.77567e-06
6.82854e-05
2.51508e-06
7.05699e-05
3.31317e-06
7.18216e-05
4.11069e-06
7.20025e-05
4.90506e-06
7.22084e-05
5.70716e-06
7.25264e-05
6.52653e-06
7.29517e-05
7.376e-06
7.35035e-05
8.27088e-06
7.42126e-05
9.23223e-06
7.51167e-05
1.02853e-05
7.62589e-05
1.14645e-05
7.76879e-05
1.28154e-05
7.94683e-05
1.44011e-05
8.16784e-05
1.63072e-05
8.44271e-05
1.86501e-05
8.786e-05
2.15785e-05
9.21666e-05
2.52844e-05
9.75861e-05
3.00359e-05
0.000104441
3.63104e-05
0.00011324
4.50232e-05
0.00012483
0.000139897
6.09747e-05
1.17811e-06
8.05256e-05
1.82513e-06
6.76382e-05
2.61819e-06
6.97768e-05
3.47936e-06
7.09603e-05
4.35159e-06
7.11305e-05
5.23967e-06
7.13203e-05
6.15681e-06
7.16094e-05
7.11798e-06
7.19906e-05
8.14098e-06
7.24804e-05
9.24846e-06
7.31051e-05
1.04684e-05
7.38968e-05
1.18361e-05
7.4891e-05
1.3399e-05
7.6125e-05
1.52206e-05
7.76468e-05
1.73856e-05
7.95135e-05
2.0015e-05
8.17978e-05
2.32797e-05
8.45953e-05
2.74289e-05
8.80174e-05
3.28455e-05
9.21695e-05
4.01604e-05
9.71256e-05
5.05435e-05
0.000102857
6.60449e-05
0.000109329
0.000114697
9.12455e-05
1.20812e-06
7.93175e-05
1.88175e-06
6.69644e-05
2.72464e-06
6.89339e-05
3.6417e-06
7.00432e-05
4.58089e-06
7.01915e-05
5.5517e-06
7.03494e-05
6.57056e-06
7.05906e-05
7.65618e-06
7.0905e-05
8.82963e-06
7.13068e-05
1.01179e-05
7.18169e-05
1.15554e-05
7.24594e-05
1.31857e-05
7.32607e-05
1.5063e-05
7.42478e-05
1.72587e-05
7.54511e-05
1.98737e-05
7.68986e-05
2.30411e-05
7.86306e-05
2.69549e-05
8.06815e-05
3.18861e-05
8.30861e-05
3.82281e-05
8.58274e-05
4.65555e-05
8.87982e-05
5.77214e-05
9.16912e-05
7.29668e-05
9.40833e-05
9.41516e-05
9.35117e-05
1.23417e-06
7.80833e-05
1.93955e-06
6.62589e-05
2.82898e-06
6.80444e-05
3.79223e-06
6.908e-05
4.78832e-06
6.91953e-05
5.82869e-06
6.93089e-05
6.93192e-06
6.94874e-05
8.11841e-06
6.97185e-05
9.41275e-06
7.00124e-05
1.08452e-05
7.03846e-05
1.24528e-05
7.08518e-05
1.42818e-05
7.14317e-05
1.63914e-05
7.21383e-05
1.88564e-05
7.29862e-05
2.17736e-05
7.39814e-05
2.52757e-05
7.51284e-05
2.95363e-05
7.64209e-05
3.47881e-05
7.78343e-05
4.13303e-05
7.92852e-05
4.9532e-05
8.05965e-05
5.9813e-05
8.14102e-05
7.26769e-05
8.12194e-05
7.88021e-05
8.80264e-05
1.25674e-06
7.68265e-05
1.99452e-06
6.5521e-05
2.92548e-06
6.71133e-05
3.92611e-06
6.80795e-05
4.96665e-06
6.81546e-05
6.0601e-06
6.82154e-05
7.22753e-06
6.832e-05
8.48967e-06
6.84564e-05
9.87274e-06
6.86294e-05
1.14084e-05
6.88491e-05
1.31347e-05
6.91255e-05
1.50988e-05
6.94675e-05
1.73574e-05
6.98798e-05
1.99826e-05
7.03611e-05
2.30638e-05
7.09002e-05
2.67143e-05
7.14778e-05
3.10764e-05
7.20587e-05
3.6326e-05
7.25847e-05
4.26642e-05
7.29469e-05
5.0306e-05
7.29547e-05
5.94379e-05
7.22782e-05
7.01991e-05
7.04581e-05
6.67313e-05
8.22699e-05
1.2789e-06
7.55475e-05
2.04398e-06
6.47559e-05
3.01022e-06
6.6147e-05
4.03656e-06
6.70532e-05
5.10885e-06
6.7082e-05
6.23904e-06
6.70851e-05
7.44958e-06
6.71094e-05
8.76137e-06
6.71446e-05
1.02006e-05
6.71902e-05
1.17983e-05
6.72514e-05
1.35923e-05
6.73315e-05
1.56277e-05
6.74321e-05
1.7958e-05
6.75494e-05
2.06475e-05
6.76716e-05
2.37715e-05
6.77761e-05
2.74231e-05
6.78262e-05
3.17093e-05
6.77726e-05
3.67548e-05
6.75392e-05
4.26858e-05
6.70158e-05
4.96142e-05
6.60262e-05
5.75941e-05
6.42982e-05
6.6583e-05
6.14692e-05
5.70678e-05
7.62466e-05
1.30511e-06
7.42423e-05
2.08548e-06
6.39755e-05
3.07635e-06
6.5156e-05
4.11816e-06
6.60113e-05
5.20913e-06
6.59909e-05
6.36025e-06
6.59338e-05
7.59446e-06
6.58752e-05
8.93128e-06
6.58079e-05
1.03961e-05
6.57255e-05
1.20186e-05
6.56288e-05
1.38341e-05
6.55159e-05
1.58844e-05
6.53818e-05
1.82171e-05
6.52168e-05
2.08874e-05
6.50013e-05
2.39577e-05
6.47057e-05
2.74977e-05
6.4286e-05
3.15852e-05
6.3685e-05
3.63007e-05
6.28236e-05
4.17171e-05
6.15994e-05
4.78765e-05
5.98667e-05
5.47604e-05
5.74142e-05
6.22583e-05
5.39712e-05
4.92383e-05
7.00878e-05
1.33878e-06
7.29034e-05
2.11712e-06
6.31971e-05
3.11717e-06
6.41558e-05
4.16346e-06
6.49649e-05
5.26037e-06
6.48939e-05
6.41788e-06
6.47762e-05
7.65773e-06
6.46353e-05
8.99843e-06
6.44673e-05
1.04632e-05
6.42607e-05
1.20795e-05
6.40124e-05
1.38791e-05
6.37163e-05
1.58984e-05
6.33626e-05
1.81783e-05
6.29368e-05
2.07646e-05
6.2415e-05
2.37066e-05
6.17637e-05
2.70556e-05
6.09369e-05
3.08647e-05
5.98759e-05
3.51815e-05
5.85068e-05
4.00416e-05
5.67393e-05
4.54494e-05
5.44588e-05
5.13571e-05
5.15065e-05
5.7646e-05
4.76821e-05
4.27853e-05
6.40989e-05
1.37892e-06
7.15245e-05
2.13646e-06
6.24394e-05
3.12575e-06
6.31664e-05
4.16399e-06
6.39266e-05
5.2536e-06
6.38043e-05
6.40262e-06
6.36272e-05
7.63222e-06
6.34058e-05
8.95896e-06
6.31407e-05
1.04032e-05
6.28164e-05
1.19895e-05
6.2426e-05
1.37448e-05
6.19609e-05
1.57e-05
6.14074e-05
1.78892e-05
6.07476e-05
2.03484e-05
5.99557e-05
2.31155e-05
5.89965e-05
2.62265e-05
5.7826e-05
2.97159e-05
5.63865e-05
3.36093e-05
5.46133e-05
3.79194e-05
5.24292e-05
4.26332e-05
4.9745e-05
4.76973e-05
4.64424e-05
5.30064e-05
4.23728e-05
3.73893e-05
5.84024e-05
1.42072e-06
7.01038e-05
2.13918e-06
6.17209e-05
3.09439e-06
6.22112e-05
4.10987e-06
6.29111e-05
5.17714e-06
6.2737e-05
6.30217e-06
6.25022e-05
7.50532e-06
6.22027e-05
8.80081e-06
6.18452e-05
1.0207e-05
6.14101e-05
1.17448e-05
6.08881e-05
1.34363e-05
6.02694e-05
1.53067e-05
5.95371e-05
1.73821e-05
5.86721e-05
1.96915e-05
5.76463e-05
2.22615e-05
5.64264e-05
2.51178e-05
5.49697e-05
2.82805e-05
5.32238e-05
3.17614e-05
5.11324e-05
3.55607e-05
4.86298e-05
3.96597e-05
4.56459e-05
4.40107e-05
4.20913e-05
4.85305e-05
3.78529e-05
3.28134e-05
5.31063e-05
1.45858e-06
6.86453e-05
2.11928e-06
6.10602e-05
3.01501e-06
6.13156e-05
3.99006e-06
6.19361e-05
5.01692e-06
6.17101e-05
6.09938e-06
6.14197e-05
7.25699e-06
6.10451e-05
8.50225e-06
6.05999e-05
9.85203e-06
6.00602e-05
1.13229e-05
5.94171e-05
1.29333e-05
5.86591e-05
1.47028e-05
5.77676e-05
1.66514e-05
5.67235e-05
1.87998e-05
5.54979e-05
2.11674e-05
5.40587e-05
2.3771e-05
5.23662e-05
2.66218e-05
5.0373e-05
2.97236e-05
4.80306e-05
3.30699e-05
4.52835e-05
3.66435e-05
4.20722e-05
4.04071e-05
3.83275e-05
4.42987e-05
3.39611e-05
2.88737e-05
4.82384e-05
1.48726e-06
6.7158e-05
2.07082e-06
6.04768e-05
2.88018e-06
6.05064e-05
3.79394e-06
6.10222e-05
4.75875e-06
6.07452e-05
5.77571e-06
6.04026e-05
6.8647e-06
5.99561e-05
8.03642e-06
5.94281e-05
9.30629e-06
5.87903e-05
1.06876e-05
5.80359e-05
1.21954e-05
5.71514e-05
1.38446e-05
5.61184e-05
1.56504e-05
5.49177e-05
1.76271e-05
5.35212e-05
1.97875e-05
5.18983e-05
2.21431e-05
5.00106e-05
2.46982e-05
4.7818e-05
2.7453e-05
4.52758e-05
3.03991e-05
4.23372e-05
3.3522e-05
3.89492e-05
3.67948e-05
3.50545e-05
4.01728e-05
3.05829e-05
2.54507e-05
4.35956e-05
1.49783e-06
6.56603e-05
1.98891e-06
5.99859e-05
2.68674e-06
5.98086e-05
3.51584e-06
6.01931e-05
4.39317e-06
5.98679e-05
5.31938e-06
5.94764e-05
6.3135e-06
5.89619e-05
7.38448e-06
5.83571e-05
8.54608e-06
5.76287e-05
9.80948e-06
5.67726e-05
1.11866e-05
5.57743e-05
1.26883e-05
5.46168e-05
1.43259e-05
5.32801e-05
1.61087e-05
5.17384e-05
1.80456e-05
4.99614e-05
2.01428e-05
4.79135e-05
2.24015e-05
4.55592e-05
2.48187e-05
4.28585e-05
2.73865e-05
3.97692e-05
3.00918e-05
3.62439e-05
3.29144e-05
3.22318e-05
3.58195e-05
2.76776e-05
2.25123e-05
3.87578e-05
1.47871e-06
6.41817e-05
1.86927e-06
5.95956e-05
2.43663e-06
5.92414e-05
3.15936e-06
5.94705e-05
3.92322e-06
5.9104e-05
4.73514e-06
5.86644e-05
5.60838e-06
5.80887e-05
6.55159e-06
5.74139e-05
7.57662e-06
5.66037e-05
8.69175e-06
5.56576e-05
9.90611e-06
5.456e-05
1.12277e-05
5.32952e-05
1.2664e-05
5.18439e-05
1.42211e-05
5.01813e-05
1.59049e-05
4.82776e-05
1.77173e-05
4.6101e-05
1.96573e-05
4.36191e-05
2.17195e-05
4.07961e-05
2.38951e-05
3.75935e-05
2.61708e-05
3.39682e-05
2.85273e-05
2.98751e-05
3.09333e-05
2.52715e-05
2.0102e-05
3.33435e-05
1.42086e-06
6.27609e-05
1.71259e-06
5.9304e-05
2.13805e-06
5.8816e-05
2.73813e-06
5.88705e-05
3.36818e-06
5.8474e-05
4.04863e-06
5.7984e-05
4.78094e-06
5.73564e-05
5.57571e-06
5.66192e-05
6.44065e-06
5.57388e-05
7.38195e-06
5.47163e-05
8.40593e-06