/*--------------------------------*- C++ -*----------------------------------*\
| =========                 |                                                 |
| \\      /  F ield         | OpenFOAM: The Open Source CFD Toolbox           |
|  \\    /   O peration     | Version:  2206                                  |
|   \\  /    A nd           | Website:  www.openfoam.com                      |
|    \\/     M anipulation  |                                                 |
\*---------------------------------------------------------------------------*/
FoamFile
{
    version     2.0;
    format      ascii;
    arch        "LSB;label=32;scalar=64";
    class       volVectorField;
    location    "0.725";
    object      U;
}
// * * * * * * * * * * * * * * * * * * * * * * * * * * * * * * * * * * * * * //

dimensions      [0 1 -1 0 0 0 0];

internalField   nonuniform List<vector> 
2268
(
(-0.0234113 0.0107596 0)
(-0.0761809 0.0127938 0)
(-0.122749 0.00988299 0)
(-0.157316 0.00760486 0)
(-0.185262 0.00471262 0)
(-0.193304 -0.000502 0)
(-0.176193 -0.00540804 0)
(-0.146481 -0.0066318 0)
(-0.12089 -0.00429445 0)
(-0.108348 -0.000947377 0)
(-0.108547 0.00212469 0)
(-0.119678 0.00435239 0)
(-0.137154 0.00588861 0)
(-0.159008 0.00718986 0)
(-0.186072 0.00650497 0)
(-0.211277 0.000796294 0)
(-0.222342 -0.00211649 0)
(-0.244043 0.0112538 0)
(-0.321011 0.0238821 0)
(-0.388052 0.0106124 0)
(-0.338762 -0.0209 0)
(-0.206771 -0.0452563 0)
(-0.0683909 -0.0399987 0)
(-0.0383125 0.0373334 0)
(-0.0947477 0.0357929 0)
(-0.13381 0.026575 0)
(-0.166234 0.021611 0)
(-0.193429 0.0139284 0)
(-0.200414 -0.0016484 0)
(-0.183933 -0.0173729 0)
(-0.151281 -0.0218142 0)
(-0.122132 -0.0143969 0)
(-0.107635 -0.00431233 0)
(-0.106546 0.00360142 0)
(-0.113017 0.0092348 0)
(-0.124405 0.0132602 0)
(-0.140077 0.0171087 0)
(-0.162937 0.0203296 0)
(-0.196189 0.0191657 0)
(-0.241862 0.0201228 0)
(-0.303307 0.0342163 0)
(-0.354216 0.0363216 0)
(-0.334557 -0.00146213 0)
(-0.244969 -0.06184 0)
(-0.147732 -0.10777 0)
(-0.0462234 -0.100307 0)
(-0.036439 0.0660549 0)
(-0.0794555 0.0571933 0)
(-0.116011 0.0427128 0)
(-0.15458 0.0371754 0)
(-0.190385 0.024979 0)
(-0.202999 -0.00218902 0)
(-0.188008 -0.0309739 0)
(-0.158092 -0.0391754 0)
(-0.128843 -0.0258557 0)
(-0.112866 -0.00807068 0)
(-0.111203 0.00440969 0)
(-0.116425 0.0121786 0)
(-0.123132 0.0174007 0)
(-0.12871 0.0225752 0)
(-0.13372 0.0289939 0)
(-0.143661 0.0356398 0)
(-0.16501 0.0438951 0)
(-0.197203 0.050538 0)
(-0.215769 0.0315028 0)
(-0.181687 -0.0281107 0)
(-0.1197 -0.0936139 0)
(-0.065155 -0.140268 0)
(-0.0103916 -0.131346 0)
(-0.0279252 0.0895055 0)
(-0.0568536 0.0762057 0)
(-0.0922841 0.0591927 0)
(-0.130602 0.0541253 0)
(-0.164103 0.0372325 0)
(-0.173246 -0.00161933 0)
(-0.16293 -0.0421728 0)
(-0.14866 -0.0534707 0)
(-0.132643 -0.0360049 0)
(-0.1207 -0.0116018 0)
(-0.119714 0.00569901 0)
(-0.126012 0.0151178 0)
(-0.133124 0.0199179 0)
(-0.136971 0.0236023 0)
(-0.135604 0.0288138 0)
(-0.128634 0.0367854 0)
(-0.116623 0.0480321 0)
(-0.100416 0.0529866 0)
(-0.0781307 0.0277391 0)
(-0.0406813 -0.0339836 0)
(-0.0106535 -0.100422 0)
(-0.00802182 -0.149868 0)
(0.0193645 -0.133501 0)
(-0.0160822 0.10586 0)
(-0.0274955 0.090823 0)
(-0.0549133 0.0751158 0)
(-0.0819777 0.0693075 0)
(-0.101463 0.0482 0)
(-0.0999609 0.00307516 0)
(-0.0985696 -0.0435474 0)
(-0.112212 -0.0555659 0)
(-0.124775 -0.0380588 0)
(-0.127939 -0.0124173 0)
(-0.130495 0.00769929 0)
(-0.136977 0.018532 0)
(-0.143705 0.0226884 0)
(-0.146918 0.0241198 0)
(-0.145213 0.0260047 0)
(-0.136157 0.0295017 0)
(-0.113993 0.0350877 0)
(-0.0759753 0.0344834 0)
(-0.0326383 0.00761462 0)
(0.00361793 -0.0485896 0)
(0.0224114 -0.103787 0)
(0.00565505 -0.154651 0)
(0.0333359 -0.121234 0)
(-0.00178817 0.109871 0)
(0.00876327 0.0961357 0)
(-0.000594539 0.0807307 0)
(-0.0114062 0.0728391 0)
(-0.00951901 0.0467028 0)
(0.00203541 0.00123799 0)
(-0.0118816 -0.0333266 0)
(-0.0590183 -0.0423103 0)
(-0.105536 -0.0275811 0)
(-0.131146 -0.00679644 0)
(-0.142069 0.0110228 0)
(-0.14929 0.0211145 0)
(-0.154555 0.0240676 0)
(-0.155607 0.0237699 0)
(-0.152536 0.0234362 0)
(-0.144697 0.0226606 0)
(-0.12687 0.020527 0)
(-0.0943989 0.0115311 0)
(-0.054922 -0.0161856 0)
(-0.0267812 -0.0636769 0)
(-0.00416227 -0.109334 0)
(-0.00952154 -0.162655 0)
(0.0254376 -0.112253 0)
(0.0109986 0.104502 0)
(0.0392061 0.0997363 0)
(0.0577928 0.0883066 0)
(0.0763179 0.0782535 0)
(0.10115 0.0505792 0)
(0.110806 0.0107193 0)
(0.0668299 -0.0136753 0)
(-0.0166452 -0.018169 0)
(-0.0870733 -0.00702118 0)
(-0.130607 0.00508916 0)
(-0.152976 0.0174419 0)
(-0.162755 0.0254262 0)
(-0.166264 0.0265127 0)
(-0.164041 0.0236683 0)
(-0.158134 0.0209027 0)
(-0.149694 0.0170347 0)
(-0.135282 0.0101817 0)
(-0.11178 -0.00344519 0)
(-0.0844889 -0.0303971 0)
(-0.0660994 -0.0726093 0)
(-0.0445323 -0.117684 0)
(-0.0355138 -0.176255 0)
(-0.0245405 -0.127206 0)
(0.0170083 0.0764009 0)
(0.0793665 0.0710318 0)
(0.137496 0.0552671 0)
(0.182875 0.0427391 0)
(0.204556 0.0273965 0)
(0.175629 0.0194946 0)
(0.0850432 0.0252666 0)
(-0.0192998 0.0292969 0)
(-0.086416 0.0282887 0)
(-0.12829 0.0257446 0)
(-0.157355 0.0259297 0)
(-0.173545 0.0259547 0)
(-0.178522 0.0230176 0)
(-0.174335 0.0189049 0)
(-0.165559 0.0166877 0)
(-0.155388 0.01279 0)
(-0.141318 0.00391472 0)
(-0.121658 -0.011958 0)
(-0.101838 -0.0381041 0)
(-0.0907084 -0.0761323 0)
(-0.0793089 -0.12156 0)
(-0.0844274 -0.181303 0)
(-0.122136 -0.160319 0)
(0.0425967 -0.22831 0)
(0.536794 -0.00474924 0)
(0.175138 0.0176263 0)
(-0.243831 0.173225 0)
(-0.991583 0.239341 0)
(-1.54029 0.146846 0)
(-1.80139 0.0486694 0)
(-1.86931 -0.00100557 0)
(-1.81098 -0.029934 0)
(-1.67508 -0.048326 0)
(-1.48395 -0.0599268 0)
(-1.27584 -0.0642179 0)
(-1.0736 -0.0607221 0)
(-0.914252 -0.0333969 0)
(-0.796832 -0.00385031 0)
(-0.703938 -0.0110145 0)
(-0.567527 -0.0389475 0)
(-0.323709 -0.0505638 0)
(0.048511 0.00774652 0)
(-0.194665 -0.363196 0)
(0.296771 0.110427 0)
(-0.539005 0.34242 0)
(-1.21045 0.461661 0)
(-1.86323 0.375167 0)
(-2.03832 0.178012 0)
(-1.97203 0.0621922 0)
(-1.86608 -0.00315889 0)
(-1.69423 -0.0602244 0)
(-1.36758 -0.116981 0)
(-1.03733 -0.137133 0)
(-0.736969 -0.133445 0)
(-0.593357 -0.118239 0)
(-0.69708 -0.108069 0)
(-0.785816 -0.130489 0)
(-0.79216 -0.137557 0)
(-0.733633 -0.196998 0)
(-0.525521 -0.244025 0)
(-0.178806 -0.147447 0)
(-0.274382 -0.283094 0)
(-0.21591 0.405006 0)
(-1.0914 0.660195 0)
(-1.74983 0.736043 0)
(-2.18155 0.577246 0)
(-2.41954 0.327738 0)
(-2.72835 0.0970462 0)
(-2.22938 -0.112856 0)
(-1.3389 -0.304031 0)
(-0.414127 -0.503102 0)
(0.0320153 -0.318385 0)
(0.390917 -0.218106 0)
(0.614673 -0.14913 0)
(0.669771 0.0521446 0)
(0.425209 0.153215 0)
(0.0202625 0.0710226 0)
(-0.350063 -0.185405 0)
(-0.441463 -0.434909 0)
(-0.174116 -0.409249 0)
(-0.372919 -0.0479597 0)
(-0.677988 0.716501 0)
(-1.44496 0.978815 0)
(-1.94794 1.02026 0)
(-2.2072 0.857731 0)
(-2.19109 0.388234 0)
(-1.68937 -0.169903 0)
(-0.964361 -0.562773 0)
(-0.0689324 -0.853085 0)
(0.458233 -0.90409 0)
(0.667758 -0.600742 0)
(0.993154 -0.271656 0)
(1.03191 -0.20351 0)
(0.965533 -0.0786091 0)
(0.908418 0.0676116 0)
(0.881261 0.195997 0)
(0.730579 0.190854 0)
(0.0329585 -0.265513 0)
(-0.0857936 -0.547132 0)
(-0.454912 0.231494 0)
(-0.933112 1.00167 0)
(-1.6077 1.26255 0)
(-1.91177 1.21826 0)
(-1.921 0.850512 0)
(-1.40372 0.0825662 0)
(-0.738201 -0.497506 0)
(-0.00951359 -0.902671 0)
(0.525882 -1.10999 0)
(0.730968 -1.04738 0)
(0.872751 -0.818566 0)
(1.14169 -0.494159 0)
(1.30815 -0.205561 0)
(1.22807 0.0517717 0)
(1.04473 0.189035 0)
(0.977707 0.227454 0)
(0.945255 0.25878 0)
(0.584315 0.116057 0)
(0.0229708 -0.442071 0)
(-0.49423 0.580485 0)
(-1.04672 1.28104 0)
(-1.59126 1.48149 0)
(-1.68645 1.3114 0)
(-1.42339 0.60946 0)
(-0.63685 -0.277179 0)
(-0.057618 -0.832721 0)
(0.506268 -1.18163 0)
(0.697078 -1.21776 0)
(0.750536 -1.09597 0)
(0.853417 -0.885901 0)
(1.04627 -0.57404 0)
(1.19073 -0.239536 0)
(1.11116 0.0685969 0)
(0.95278 0.245967 0)
(0.839116 0.260018 0)
(0.833787 0.307431 0)
(0.668085 0.266177 0)
(0.0942901 -0.211337 0)
(-0.5219 0.956168 0)
(-1.06396 1.53719 0)
(-1.4252 1.63801 0)
(-1.35899 1.21113 0)
(-0.843953 0.200532 0)
(-0.0898872 -0.650778 0)
(0.375341 -1.1518 0)
(0.587611 -1.27819 0)
(0.621882 -1.23756 0)
(0.624908 -1.1092 0)
(0.682294 -0.929783 0)
(0.76695 -0.633943 0)
(0.899108 -0.208544 0)
(0.811465 0.124644 0)
(0.710365 0.28598 0)
(0.646933 0.295883 0)
(0.663858 0.351289 0)
(0.602688 0.398611 0)
(0.0559886 -0.0298768 0)
(-0.499156 1.30608 0)
(-1.02844 1.76097 0)
(-1.20554 1.73778 0)
(-1.00582 1.0334 0)
(-0.27065 -0.137584 0)
(0.208875 -0.901413 0)
(0.457507 -1.25426 0)
(0.490539 -1.29309 0)
(0.479982 -1.23011 0)
(0.470757 -1.11353 0)
(0.468987 -0.953256 0)
(0.447389 -0.675023 0)
(0.528636 -0.123744 0)
(0.36395 0.222517 0)
(0.459916 0.284997 0)
(0.482183 0.312816 0)
(0.517265 0.387825 0)
(0.49886 0.514214 0)
(-0.0261862 0.134398 0)
(0.0253291 0.0299372 0)
(0.0462093 0.0126655 0)
(0.0263106 0.0255576 0)
(-0.0129629 0.0530191 0)
(-0.0522338 0.0748977 0)
(-0.080973 0.0874986 0)
(-0.104363 0.0781382 0)
(-0.122017 0.0561182 0)
(-0.134118 0.0439574 0)
(-0.14616 0.0424793 0)
(-0.161609 0.0456419 0)
(-0.177467 0.0428979 0)
(-0.184466 0.0311899 0)
(-0.177888 0.0162381 0)
(-0.168304 0.00803574 0)
(-0.161296 -9.2862e-05 0)
(-0.15185 -0.0107736 0)
(-0.136893 -0.0277085 0)
(-0.120565 -0.0503981 0)
(-0.110901 -0.0797054 0)
(-0.111081 -0.11452 0)
(-0.146438 -0.147304 0)
(-0.225094 -0.110553 0)
(-0.621482 0.0693067 0)
(-0.613978 0.118347 0)
(-0.54359 0.108163 0)
(-0.461013 0.0867851 0)
(-0.409325 0.0655575 0)
(-0.389615 0.0627104 0)
(-0.367816 0.0667632 0)
(-0.328952 0.0598265 0)
(-0.283061 0.0485412 0)
(-0.238424 0.044723 0)
(-0.20387 0.0471869 0)
(-0.180364 0.042312 0)
(-0.16175 0.0236866 0)
(-0.146847 0.0056707 0)
(-0.146103 0.00565421 0)
(-0.152726 0.000930619 0)
(-0.151882 -0.0171786 0)
(-0.130759 -0.045872 0)
(-0.11559 -0.0675715 0)
(-0.108956 -0.084162 0)
(-0.110081 -0.0980789 0)
(-0.130024 -0.112251 0)
(-0.150526 -0.0960146 0)
(-0.460883 0.851954 0)
(-0.431653 0.124122 0)
(-0.799465 -0.080976 0)
(-1.04224 -0.017306 0)
(-1.13634 0.03531 0)
(-1.07439 0.0260013 0)
(-0.94783 -0.00249971 0)
(-0.818501 -0.0316941 0)
(-0.694763 -0.0451374 0)
(-0.566916 -0.0275243 0)
(-0.462873 -0.00445143 0)
(-0.403024 0.000606958 0)
(-0.358688 -0.000127369 0)
(-0.292298 0.00484614 0)
(-0.209328 0.0102802 0)
(-0.159348 0.0053362 0)
(-0.13601 -0.0173655 0)
(-0.122836 -0.0465413 0)
(-0.120672 -0.057093 0)
(-0.122644 -0.0667149 0)
(-0.113174 -0.0847219 0)
(-0.100696 -0.103994 0)
(-0.0981485 -0.0907113 0)
(-0.293765 1.20414 0)
(-0.222742 0.511048 0)
(-0.559781 0.397448 0)
(-0.70662 0.269793 0)
(-0.79348 0.082677 0)
(-0.84839 -0.0624091 0)
(-0.927502 -0.133534 0)
(-1.07234 -0.163145 0)
(-1.25203 -0.160404 0)
(-1.42207 -0.131713 0)
(-1.55881 -0.0978951 0)
(-1.58703 -0.108246 0)
(-1.4612 -0.156291 0)
(-1.18397 -0.176847 0)
(-0.915852 -0.137682 0)
(-0.767211 -0.0777584 0)
(-0.722258 -0.0605273 0)
(-0.673819 -0.0569456 0)
(-0.595865 -0.0689594 0)
(-0.519523 -0.100332 0)
(-0.417013 -0.125084 0)
(-0.30763 -0.122726 0)
(-0.227271 -0.0963862 0)
(-0.0641694 1.29624 0)
(0.0345724 0.73909 0)
(-0.22849 0.473979 0)
(-0.219146 0.333357 0)
(-0.205862 0.206521 0)
(-0.260842 0.132771 0)
(-0.284683 0.138844 0)
(-0.369523 0.216229 0)
(-0.566072 0.251432 0)
(-0.809664 0.201281 0)
(-1.026 0.107411 0)
(-1.29903 -0.0542546 0)
(-1.65527 -0.24377 0)
(-1.95816 -0.372085 0)
(-2.07906 -0.339578 0)
(-2.00659 -0.210679 0)
(-1.81637 -0.185857 0)
(-1.59035 -0.229495 0)
(-1.38186 -0.283663 0)
(-1.1453 -0.299177 0)
(-0.931821 -0.280083 0)
(-0.763757 -0.259879 0)
(-0.612353 -0.257001 0)
(0.127829 1.10103 0)
(0.242243 0.871456 0)
(0.100455 0.507893 0)
(0.0933866 0.293585 0)
(0.0929641 0.190979 0)
(0.0171258 0.145834 0)
(-0.0632692 0.0847671 0)
(-0.128343 0.133901 0)
(-0.151948 0.290087 0)
(-0.233335 0.369017 0)
(-0.325312 0.36848 0)
(-0.41482 0.374752 0)
(-0.590251 0.330575 0)
(-0.846376 0.102101 0)
(-1.13347 -0.214314 0)
(-1.35018 -0.341072 0)
(-1.46706 -0.348188 0)
(-1.35701 -0.422353 0)
(-1.02368 -0.618402 0)
(-0.69506 -0.661349 0)
(-0.605952 -0.549575 0)
(-0.65893 -0.443765 0)
(-0.794521 -0.401633 0)
(0.153316 0.801013 0)
(0.295924 0.829488 0)
(0.277639 0.557102 0)
(0.245814 0.336288 0)
(0.185257 0.239055 0)
(0.115545 0.224971 0)
(0.0429655 0.205909 0)
(-0.0493368 0.224992 0)
(-0.0675224 0.300105 0)
(-0.0395564 0.381288 0)
(-0.0439232 0.393215 0)
(-0.0671361 0.366815 0)
(-0.0882862 0.347613 0)
(-0.1449 0.292931 0)
(-0.296836 0.190628 0)
(-0.469319 0.0514072 0)
(-0.66982 -0.168109 0)
(-0.82908 -0.478633 0)
(-0.902006 -0.685166 0)
(-1.05031 -0.566574 0)
(-1.24346 -0.356862 0)
(-1.39102 -0.282596 0)
(-1.5742 -0.102025 0)
(0.0536406 0.622934 0)
(0.208831 0.716966 0)
(0.268206 0.547956 0)
(0.253917 0.386239 0)
(0.178829 0.310347 0)
(0.117463 0.299613 0)
(0.0620903 0.29019 0)
(-0.0155568 0.2948 0)
(-0.0619452 0.314742 0)
(-0.0486265 0.356526 0)
(-0.0205223 0.377474 0)
(-0.0254418 0.347617 0)
(-0.0167714 0.301771 0)
(0.00436571 0.268385 0)
(-0.0318692 0.239102 0)
(-0.124418 0.148475 0)
(-0.270952 0.0125786 0)
(-0.513665 -0.189641 0)
(-0.850669 -0.330497 0)
(-1.28981 -0.23451 0)
(-1.6162 -0.17615 0)
(-1.81227 -0.139133 0)
(-1.86123 -0.0727046 0)
(-0.0185776 0.567663 0)
(0.101657 0.593531 0)
(0.179343 0.508007 0)
(0.184572 0.418278 0)
(0.133329 0.368496 0)
(0.0911348 0.352982 0)
(0.0492128 0.343776 0)
(-0.00191389 0.338821 0)
(-0.0436373 0.331141 0)
(-0.0595218 0.343079 0)
(-0.0437478 0.362306 0)
(-0.0347432 0.350304 0)
(-0.0308932 0.307167 0)
(-0.0316311 0.271798 0)
(-0.0428259 0.255964 0)
(-0.0858746 0.22293 0)
(-0.192864 0.170034 0)
(-0.39236 0.100781 0)
(-0.698637 0.0618181 0)
(-1.23225 0.0358402 0)
(-1.6334 -0.0300352 0)
(-1.59016 -0.0215269 0)
(-1.56155 0.0231971 0)
(-0.0236951 0.551798 0)
(0.0455298 0.503155 0)
(0.102067 0.474333 0)
(0.112817 0.435137 0)
(0.0893737 0.404558 0)
(0.0671616 0.387351 0)
(0.040586 0.380118 0)
(0.0122841 0.375335 0)
(-0.015162 0.360313 0)
(-0.0379388 0.351641 0)
(-0.040647 0.351992 0)
(-0.0321187 0.341064 0)
(-0.0311729 0.311624 0)
(-0.0487673 0.288102 0)
(-0.0723978 0.284555 0)
(-0.103151 0.28243 0)
(-0.159532 0.28334 0)
(-0.243461 0.300426 0)
(-0.343929 0.374184 0)
(-0.487183 0.411425 0)
(-0.898479 0.167516 0)
(-0.991523 -0.11454 0)
(-0.832474 -0.0976924 0)
(-0.00789994 0.543755 0)
(0.0267715 0.456307 0)
(0.0578242 0.452042 0)
(0.0685267 0.438101 0)
(0.0615125 0.419542 0)
(0.0526114 0.405569 0)
(0.0397176 0.400702 0)
(0.027132 0.397354 0)
(0.011807 0.384335 0)
(-0.00559406 0.367941 0)
(-0.0156101 0.353398 0)
(-0.0165991 0.337452 0)
(-0.0216155 0.319549 0)
(-0.0411241 0.309287 0)
(-0.0667211 0.313811 0)
(-0.0925962 0.322113 0)
(-0.119741 0.334442 0)
(-0.139473 0.360041 0)
(-0.148533 0.425812 0)
(-0.109225 0.50428 0)
(-0.0529041 0.424853 0)
(-0.305751 0.104938 0)
(-0.674856 -0.118913 0)
(0.00106178 0.535353 0)
(0.019623 0.43267 0)
(0.0359938 0.436876 0)
(0.046158 0.433773 0)
(0.0460169 0.422257 0)
(0.0440521 0.412222 0)
(0.0394222 0.408256 0)
(0.0356522 0.405098 0)
(0.0293785 0.395312 0)
(0.0197726 0.379759 0)
(0.010079 0.361973 0)
(0.00110365 0.34547 0)
(-0.0110343 0.334404 0)
(-0.0302016 0.331525 0)
(-0.0513916 0.337775 0)
(-0.0696922 0.344836 0)
(-0.0823627 0.349969 0)
(-0.0835585 0.361891 0)
(-0.0681139 0.388083 0)
(-0.0233556 0.397671 0)
(0.0967736 0.335843 0)
(0.162718 0.405971 0)
(-0.177949 0.278353 0)
(0.0039796 0.525355 0)
(0.0160036 0.419167 0)
(0.0251079 0.425997 0)
(0.0343098 0.428211 0)
(0.0363449 0.420919 0)
(0.0373663 0.413328 0)
(0.0364308 0.409324 0)
(0.0364856 0.406078 0)
(0.0352733 0.398889 0)
(0.030787 0.386634 0)
(0.0227951 0.371803 0)
(0.0107091 0.358624 0)
(-0.00480748 0.351427 0)
(-0.0230663 0.350795 0)
(-0.0401856 0.355327 0)
(-0.0528478 0.358114 0)
(-0.0602969 0.355554 0)
(-0.0601668 0.35415 0)
(-0.0440434 0.352674 0)
(0.00131867 0.309933 0)
(0.05347 0.224702 0)
(0.119622 0.3914 0)
(0.0718678 0.468191 0)
(0.00553297 0.515086 0)
(0.0140047 0.410959 0)
(0.0194592 0.41802 0)
(0.0270663 0.42321 0)
(0.0294923 0.418674 0)
(0.0314709 0.412685 0)
(0.0317072 0.408737 0)
(0.0325865 0.405469 0)
(0.0327249 0.400207 0)
(0.0300241 0.391591 0)
(0.0231301 0.3814 0)
(0.011331 0.372745 0)
(-0.00375358 0.368227 0)
(-0.0201278 0.367606 0)
(-0.0348307 0.369291 0)
(-0.0460701 0.368323 0)
(-0.0547814 0.360886 0)
(-0.0594687 0.349171 0)
(-0.0507424 0.329143 0)
(-0.0226464 0.273415 0)
(-0.0721469 0.233345 0)
(-0.144421 0.390051 0)
(-0.0805975 0.424181 0)
(0.00650759 0.505221 0)
(0.0125078 0.40524 0)
(0.0164997 0.412261 0)
(0.0222286 0.418925 0)
(0.0246257 0.416209 0)
(0.0266999 0.411617 0)
(0.0270795 0.408162 0)
(0.0274746 0.405142 0)
(0.0270747 0.401415 0)
(0.0244165 0.396148 0)
(0.0181764 0.390339 0)
(0.00791275 0.38564 0)
(-0.005118 0.383216 0)
(-0.0194195 0.382548 0)
(-0.0334063 0.382607 0)
(-0.046625 0.380214 0)
(-0.060886 0.370784 0)
(-0.0765632 0.353158 0)
(-0.0865347 0.328016 0)
(-0.108046 0.301159 0)
(-0.256976 0.342198 0)
(-0.377097 0.434935 0)
(-0.275989 0.227769 0)
(0.00656011 0.496042 0)
(0.0111466 0.400432 0)
(0.0148109 0.408086 0)
(0.0188985 0.415407 0)
(0.0212811 0.413838 0)
(0.0232179 0.410513 0)
(0.0236016 0.407908 0)
(0.0234378 0.405565 0)
(0.0222732 0.403229 0)
(0.0193509 0.400605 0)
(0.0137459 0.398128 0)
(0.00519637 0.396423 0)
(-0.0056634 0.395947 0)
(-0.0182703 0.396319 0)
(-0.0323847 0.397119 0)
(-0.0485061 0.396531 0)
(-0.0690489 0.390053 0)
(-0.0977549 0.375868 0)
(-0.133846 0.365158 0)
(-0.199071 0.393565 0)
(-0.361419 0.504687 0)
(-0.515793 0.535612 0)
(-0.612021 0.167876 0)
(0.00592141 0.487824 0)
(0.0099566 0.395919 0)
(0.0135903 0.404835 0)
(0.0166286 0.412468 0)
(0.019067 0.411617 0)
(0.0209228 0.409415 0)
(0.0214935 0.407813 0)
(0.0212244 0.406456 0)
(0.0198294 0.405431 0)
(0.0170104 0.40475 0)
(0.0122636 0.40461 0)
(0.00536862 0.405226 0)
(-0.00358217 0.406829 0)
(-0.0146708 0.409365 0)
(-0.0283816 0.412854 0)
(-0.0456521 0.416671 0)
(-0.0689301 0.418122 0)
(-0.1037 0.416239 0)
(-0.153184 0.42699 0)
(-0.218276 0.495359 0)
(-0.307367 0.642027 0)
(-0.408028 0.6734 0)
(-0.516142 0.36458 0)
(0.00512676 0.480565 0)
(0.00902218 0.391589 0)
(0.0125406 0.401994 0)
(0.0151628 0.409776 0)
(0.0177171 0.409416 0)
(0.0196404 0.408167 0)
(0.020571 0.407527 0)
(0.0206359 0.407222 0)
(0.0196208 0.407398 0)
(0.0174039 0.408202 0)
(0.0137597 0.409786 0)
(0.00847461 0.412321 0)
(0.0013423 0.416027 0)
(-0.00794522 0.421167 0)
(-0.0199768 0.428075 0)
(-0.0356402 0.437037 0)
(-0.056726 0.447642 0)
(-0.0874757 0.459865 0)
(-0.131397 0.484844 0)
(-0.177722 0.558072 0)
(-0.197178 0.697933 0)
(-0.213138 0.75189 0)
(-0.294282 0.503112 0)
(0.00452482 0.474016 0)
(0.00837364 0.387509 0)
(0.0116733 0.399249 0)
(0.0143379 0.407071 0)
(0.0170543 0.407091 0)
(0.0191913 0.406611 0)
(0.0205808 0.406778 0)
(0.021231 0.407415 0)
(0.0209771 0.408632 0)
(0.0197271 0.410627 0)
(0.0173736 0.413582 0)
(0.0137236 0.417714 0)
(0.0085302 0.423324 0)
(0.00151791 0.430819 0)
(-0.00774028 0.440775 0)
(-0.0198097 0.453922 0)
(-0.0355865 0.471171 0)
(-0.0569943 0.493284 0)
(-0.0859823 0.524471 0)
(-0.114076 0.581842 0)
(-0.107745 0.680934 0)
(-0.063256 0.740777 0)
(-0.0805759 0.553664 0)
(0.00418641 0.467885 0)
(0.00798841 0.383722 0)
(0.0110703 0.396428 0)
(0.0140216 0.404198 0)
(0.0169459 0.40454 0)
(0.0194144 0.404655 0)
(0.0213244 0.405452 0)
(0.0226645 0.406829 0)
(0.023328 0.408884 0)
(0.023231 0.411822 0)
(0.0222918 0.415853 0)
(0.0203882 0.421247 0)
(0.0173217 0.42837 0)
(0.0129474 0.437643 0)
(0.00704849 0.449765 0)
(-0.000674798 0.465553 0)
(-0.0104406 0.486188 0)
(-0.0226626 0.512728 0)
(-0.0380025 0.545883 0)
(-0.053444 0.588859 0)
(-0.0519574 0.645781 0)
(-0.012609 0.685696 0)
(0.00425932 0.595862 0)
(0.00403903 0.46194 0)
(0.00781628 0.380184 0)
(0.0107631 0.393427 0)
(0.0140978 0.401069 0)
(0.0172821 0.401679 0)
(0.020165 0.40224 0)
(0.022638 0.403501 0)
(0.0247175 0.405402 0)
(0.0263457 0.408065 0)
(0.027459 0.411677 0)
(0.0280116 0.416476 0)
(0.0279637 0.422748 0)
(0.0271737 0.430876 0)
(0.0256279 0.441298 0)
(0.023273 0.454671 0)
(0.0199784 0.471806 0)
(0.015799 0.493763 0)
(0.0107759 0.5215 0)
(0.00464101 0.555205 0)
(-0.00271662 0.593533 0)
(-0.00835588 0.63289 0)
(-0.0053705 0.66056 0)
(-0.00132212 0.623864 0)
(0.00399942 0.456026 0)
(0.00780193 0.376801 0)
(0.0107183 0.390178 0)
(0.0144637 0.397631 0)
(0.0179549 0.398444 0)
(0.0213052 0.399316 0)
(0.0243703 0.400888 0)
(0.0272157 0.403118 0)
(0.029817 0.406145 0)
(0.032152 0.410147 0)
(0.0342209 0.415386 0)
(0.0360572 0.422125 0)
(0.0376121 0.430736 0)
(0.0389475 0.441683 0)
(0.0401339 0.45553 0)
(0.0411936 0.473071 0)
(0.0422622 0.495295 0)
(0.0434533 0.523166 0)
(0.0444851 0.557411 0)
(0.0440602 0.597672 0)
(0.0383997 0.641441 0)
(0.0180643 0.683745 0)
(-0.00917985 0.716323 0)
(0.00402411 0.450046 0)
(0.00789916 0.373472 0)
(0.0108696 0.38664 0)
(0.0150305 0.393852 0)
(0.0188563 0.394794 0)
(0.0226966 0.395849 0)
(0.0263675 0.397585 0)
(0.0299811 0.39997 0)
(0.03354 0.403131 0)
(0.0370769 0.407252 0)
(0.0406353 0.412586 0)
(0.0443044 0.419389 0)
(0.0481475 0.427992 0)
(0.0522909 0.43884 0)
(0.0569181 0.452454 0)
(0.062233 0.469582 0)
(0.0685165 0.491203 0)
(0.0760907 0.518444 0)
(0.0850577 0.552633 0)
(0.0949033 0.595399 0)
(0.102482 0.649126 0)
(0.105182 0.718 0)
(0.0998823 0.825751 0)
(0.00409557 0.443938 0)
(0.00806968 0.370123 0)
(0.0111509 0.3828 0)
(0.0157178 0.389721 0)
(0.0198844 0.390711 0)
(0.0242091 0.391834 0)
(0.0284747 0.393595 0)
(0.0328304 0.395966 0)
(0.0373044 0.399058 0)
(0.0419767 0.403049 0)
(0.0469396 0.40816 0)
(0.0523239 0.414641 0)
(0.0582804 0.422775 0)
(0.0650299 0.432945 0)
(0.072866 0.445627 0)
(0.0821806 0.461475 0)
(0.0935103 0.481374 0)
(0.107607 0.506474 0)
(0.125437 0.53827 0)
(0.14851 0.578973 0)
(0.177686 0.632679 0)
(0.224403 0.706683 0)
(0.281274 0.819566 0)
(0.00419586 0.437666 0)
(0.00827715 0.366696 0)
(0.011516 0.378663 0)
(0.0164545 0.385242 0)
(0.0209483 0.386203 0)
(0.0257303 0.387291 0)
(0.0305495 0.38895 0)
(0.0355917 0.391153 0)
(0.0409054 0.393994 0)
(0.046604 0.397631 0)
(0.0528234 0.40225 0)
(0.0597347 0.408068 0)
(0.0675499 0.415321 0)
(0.0765739 0.42431 0)
(0.0872001 0.43541 0)
(0.0999636 0.44912 0)
(0.115635 0.466097 0)
(0.135355 0.487199 0)
(0.160759 0.513447 0)
(0.194659 0.546065 0)
(0.240302 0.586769 0)
(0.311955 0.63864 0)
(0.402458 0.698425 0)
(0.0042974 0.431225 0)
(0.00848928 0.363144 0)
(0.0119305 0.374247 0)
(0.0171863 0.380439 0)
(0.0219762 0.381308 0)
(0.0271692 0.382265 0)
(0.0324774 0.383714 0)
(0.0381215 0.385615 0)
(0.0441637 0.388047 0)
(0.0507437 0.391139 0)
(0.0580277 0.395044 0)
(0.0662154 0.39993 0)
(0.0755622 0.405971 0)
(0.0864242 0.41338 0)
(0.0992496 0.422391 0)
(0.114639 0.433307 0)
(0.133458 0.446483 0)
(0.156947 0.462318 0)
(0.186806 0.48106 0)
(0.225675 0.502593 0)
(0.27645 0.525847 0)
(0.347645 0.549121 0)
(0.435642 0.560034 0)
(0.00437363 0.424633 0)
(0.00869026 0.359429 0)
(0.0123602 0.369572 0)
(0.0178768 0.375354 0)
(0.022919 0.376077 0)
(0.0284574 0.376823 0)
(0.034172 0.377972 0)
(0.0403094 0.379462 0)
(0.0469437 0.38136 0)
(0.0542305 0.383762 0)
(0.0623535 0.386782 0)
(0.0715269 0.390537 0)
(0.08203 0.395138 0)
(0.0942299 0.400706 0)
(0.108583 0.407329 0)
(0.125676 0.415122 0)
(0.146328 0.424156 0)
(0.171622 0.43444 0)
(0.202943 0.445643 0)
(0.242148 0.456903 0)
(0.291013 0.466148 0)
(0.353218 0.470294 0)
(0.426775 0.4603 0)
(0.00441341 0.417913 0)
(0.0088841 0.355534 0)
(0.012773 0.364657 0)
(0.0185005 0.370046 0)
(0.0237394 0.37057 0)
(0.0295485 0.371049 0)
(0.0355734 0.371826 0)
(0.0420817 0.372828 0)
(0.0491569 0.374102 0)
(0.0569559 0.375714 0)
(0.0656715 0.377736 0)
(0.0755215 0.380239 0)
(0.0867913 0.383271 0)
(0.0998251 0.386871 0)
(0.115054 0.391011 0)
(0.132998 0.395653 0)
(0.154351 0.400662 0)
(0.17996 0.405799 0)
(0.210832 0.410499 0)
(0.248145 0.413704 0)
(0.292847 0.413457 0)
(0.346359 0.407027 0)
(0.407026 0.389287 0)
(0.00442769 0.41108 0)
(0.00908327 0.35147 0)
(0.0131345 0.359532 0)
(0.0190335 0.364569 0)
(0.0244045 0.364855 0)
(0.0304092 0.365033 0)
(0.0366435 0.365388 0)
(0.043399 0.365857 0)
(0.0507564 0.366454 0)
(0.058871 0.367218 0)
(0.0679361 0.368185 0)
(0.0781601 0.369384 0)
(0.0898179 0.370812 0)
(0.10322 0.372435 0)
(0.118748 0.374153 0)
(0.136833 0.375809 0)
(0.158017 0.377161 0)
(0.182929 0.377827 0)
(0.212242 0.377203 0)
(0.246648 0.374267 0)
(0.286535 0.36738 0)
(0.332233 0.354323 0)
(0.382208 0.331895 0)
(0.00444958 0.404124 0)
(0.00930156 0.347284 0)
(0.0134049 0.354239 0)
(0.019447 0.358979 0)
(0.0248807 0.359005 0)
(0.0310085 0.358861 0)
(0.0373539 0.358772 0)
(0.0442408 0.358688 0)
(0.0517334 0.358588 0)
(0.0599843 0.358493 0)
(0.0691754 0.358401 0)
(0.0795019 0.358303 0)
(0.0912119 0.358165 0)
(0.104579 0.357894 0)
(0.119921 0.357347 0)
(0.137585 0.356295 0)
(0.157965 0.354449 0)
(0.181503 0.351372 0)
(0.208611 0.346485 0)
(0.239639 0.338906 0)
(0.274625 0.327324 0)
(0.313386 0.310027 0)
(0.354615 0.284977 0)
(0.00452246 0.397007 0)
(0.00954202 0.343061 0)
(0.0135512 0.348849 0)
(0.0197056 0.353335 0)
(0.0251265 0.35309 0)
(0.0313096 0.352619 0)
(0.0376736 0.352081 0)
(0.0445912 0.351445 0)
(0.0520961 0.350661 0)
(0.0603336 0.349726 0)
(0.0694656 0.348614 0)
(0.0796717 0.347282 0)
(0.0911645 0.345668 0)
(0.104175 0.34365 0)
(0.118958 0.341055 0)
(0.135787 0.337632 0)
(0.154936 0.333067 0)
(0.176686 0.326936 0)
(0.201271 0.318712 0)
(0.228829 0.307697 0)
(0.259224 0.292891 0)
(0.292097 0.273033 0)
(0.326414 0.246825 0)
(0.00467341 0.389687 0)
(0.0097832 0.338903 0)
(0.0135523 0.343459 0)
(0.019766 0.3477 0)
(0.0250917 0.34718 0)
(0.0312638 0.346385 0)
(0.0375585 0.345406 0)
(0.0444203 0.344235 0)
(0.0518343 0.342798 0)
(0.0599401 0.341066 0)
(0.068877 0.339 0)
(0.0787995 0.336536 0)
(0.0898859 0.33358 0)
(0.102319 0.330002 0)
(0.116301 0.325611 0)
(0.13204 0.320164 0)
(0.149715 0.313342 0)
(0.169491 0.304766 0)
(0.191488 0.29398 0)
(0.215724 0.280441 0)
(0.242003 0.263409 0)
(0.269955 0.241959 0)
(0.298788 0.215183 0)
(0.00489987 0.382139 0)
(0.00998769 0.334901 0)
(0.013387 0.338186 0)
(0.019577 0.342146 0)
(0.0247169 0.341348 0)
(0.0308068 0.340235 0)
(0.0369391 0.338829 0)
(0.0436609 0.337147 0)
(0.0508892 0.335094 0)
(0.0587654 0.332625 0)
(0.0674084 0.329689 0)
(0.0769381 0.326204 0)
(0.0874993 0.322066 0)
(0.0992333 0.317129 0)
(0.112295 0.311208 0)
(0.126833 0.304067 0)
(0.142963 0.295405 0)
(0.160772 0.284898 0)
(0.180303 0.272159 0)
(0.201518 0.256762 0)
(0.224232 0.238155 0)
(0.248128 0.215643 0)
(0.27261 0.188524 0)
(0.00518326 0.374368 0)
(0.0101178 0.331153 0)
(0.013025 0.333157 0)
(0.0190861 0.336752 0)
(0.023934 0.335677 0)
(0.0298543 0.334255 0)
(0.0357172 0.332437 0)
(0.0422001 0.33027 0)
(0.0491401 0.327637 0)
(0.0566876 0.32449 0)
(0.0649404 0.320767 0)
(0.0739888 0.316373 0)
(0.0839445 0.311203 0)
(0.0949133 0.305103 0)
(0.107012 0.297895 0)
(0.120334 0.289355 0)
(0.134959 0.279216 0)
(0.150926 0.267193 0)
(0.16823 0.252963 0)
(0.186814 0.236178 0)
(0.206532 0.216418 0)
(0.227147 0.193143 0)
(0.248211 0.165771 0)
(0.00550544 0.366403 0)
(0.0101404 0.327775 0)
(0.012433 0.328524 0)
(0.0182464 0.331627 0)
(0.0226769 0.330273 0)
(0.0283192 0.32856 0)
(0.0337831 0.326345 0)
(0.0399043 0.323718 0)
(0.0464294 0.320538 0)
(0.0535266 0.316766 0)
(0.0612663 0.312326 0)
(0.0697226 0.307123 0)
(0.0789791 0.30105 0)
(0.0891088 0.293957 0)
(0.100199 0.285671 0)
(0.112305 0.275979 0)
(0.125476 0.264652 0)
(0.139726 0.251433 0)
(0.155027 0.236049 0)
(0.171324 0.2182 0)
(0.188505 0.197549 0)
(0.206415 0.173671 0)
(0.224708 0.146071 0)
(0.00582947 0.358321 0)
(0.0100124 0.324873 0)
(0.0115969 0.32444 0)
(0.0170339 0.326906 0)
(0.0209059 0.325277 0)
(0.0261468 0.323295 0)
(0.0310642 0.3207 0)
(0.036686 0.31764 0)
(0.0426442 0.313949 0)
(0.0491389 0.309598 0)
(0.0562134 0.304507 0)
(0.0639273 0.298587 0)
(0.0723417 0.291725 0)
(0.0815066 0.283781 0)
(0.0914804 0.274588 0)
(0.102299 0.263944 0)
(0.113986 0.25165 0)
(0.126538 0.237474 0)
(0.13992 0.221178 0)
(0.154081 0.202492 0)
(0.168928 0.181126 0)
(0.184361 0.156744 0)
(0.200098 0.128931 0)
(0.00609927 0.350262 0)
(0.00968181 0.322505 0)
(0.0105205 0.321024 0)
(0.0154634 0.322711 0)
(0.0186394 0.320833 0)
(0.0233585 0.318594 0)
(0.027586 0.315646 0)
(0.0325767 0.312187 0)
(0.0378127 0.308029 0)
(0.0435479 0.303156 0)
(0.0497931 0.297488 0)
(0.0565896 0.290939 0)
(0.0639826 0.283399 0)
(0.072008 0.274735 0)
(0.0806996 0.264783 0)
(0.0900789 0.253359 0)
(0.100152 0.240283 0)
(0.110897 0.225349 0)
(0.122277 0.208339 0)
(0.134242 0.189009 0)
(0.146686 0.167099 0)
(0.159533 0.142343 0)
(0.172535 0.114404 0)
(0.00626533 0.342378 0)
(0.00911589 0.320655 0)
(0.00923409 0.318324 0)
(0.0135898 0.319108 0)
(0.015972 0.317034 0)
(0.0200684 0.314532 0)
(0.0235051 0.311274 0)
(0.0277631 0.307458 0)
(0.0321514 0.302887 0)
(0.0370001 0.297562 0)
(0.042271 0.291399 0)
(0.0479959 0.284317 0)
(0.0542084 0.276215 0)
(0.0609293 0.266959 0)
(0.0681769 0.256391 0)
(0.0759616 0.244348 0)
(0.0842706 0.230666 0)
(0.0930675 0.21516 0)
(0.10231 0.19763 0)
(0.111942 0.177852 0)
(0.121836 0.155594 0)
(0.131911 0.130654 0)
(0.141948 0.10276 0)
(0.00623681 0.334889 0)
(0.00827887 0.31935 0)
(0.00782173 0.316408 0)
(0.0114983 0.316205 0)
(0.0130673 0.314001 0)
(0.0164756 0.311221 0)
(0.0190873 0.307713 0)
(0.0225547 0.303582 0)
(0.0260309 0.298667 0)
(0.0299242 0.292971 0)
(0.0341384 0.286404 0)
(0.0387092 0.278902 0)
(0.0436563 0.270358 0)
(0.0489911 0.26064 0)
(0.0547215 0.249606 0)
(0.060843 0.23711 0)
(0.0673296 0.222998 0)
(0.0741361 0.207107 0)
(0.0812128 0.189253 0)
(0.0884902 0.169239 0)
(0.0958376 0.146859 0)
(0.103167 0.121961 0)
(0.110307 0.0943277 0)
(0.00581293 0.328064 0)
(0.00708228 0.318473 0)
(0.00635755 0.315247 0)
(0.00926222 0.314044 0)
(0.0101086 0.311764 0)
(0.0128014 0.308688 0)
(0.0146276 0.304991 0)
(0.0172944 0.300586 0)
(0.0198672 0.295402 0)
(0.0228067 0.289415 0)
(0.0259666 0.282543 0)
(0.0293906 0.274721 0)
(0.0330861 0.265846 0)
(0.037066 0.255787 0)
(0.0413252 0.244421 0)
(0.0458404 0.231616 0)
(0.0505817 0.21723 0)
(0.0555037 0.201113 0)
(0.0605472 0.183104 0)
(0.0656324 0.163033 0)
(0.0706405 0.140726 0)
(0.0754687 0.116049 0)
(0.0800067 0.0888244 0)
(0.00511867 0.322654 0)