/*--------------------------------*- C++ -*----------------------------------*\
| =========                 |                                                 |
| \\      /  F ield         | OpenFOAM: The Open Source CFD Toolbox           |
|  \\    /   O peration     | Version:  2206                                  |
|   \\  /    A nd           | Website:  www.openfoam.com                      |
|    \\/     M anipulation  |                                                 |
\*---------------------------------------------------------------------------*/
FoamFile
{
    version     2.0;
    format      ascii;
    arch        "LSB;label=32;scalar=64";
    class       surfaceScalarField;
    location    "0.825";
    object      alphaPhi0.water;
}
// * * * * * * * * * * * * * * * * * * * * * * * * * * * * * * * * * * * * * //

dimensions      [0 3 -1 0 0 0 0];

oriented        oriented;

internalField   nonuniform List<scalar> 
4432
(
-9.509e-08
9.509e-08
3.05546e-06
-3.15055e-06
6.94018e-06
-3.88472e-06
9.68624e-06
-2.74606e-06
1.115e-05
-1.46379e-06
1.17492e-05
-5.99127e-07
1.19417e-05
-1.92515e-07
1.20004e-05
-5.86819e-08
1.20051e-05
-4.78974e-09
1.19261e-05
7.90735e-08
1.17218e-05
2.04238e-07
1.13622e-05
3.59606e-07
1.0848e-05
5.14253e-07
1.02052e-05
6.4273e-07
9.4759e-06
7.29344e-07
8.71812e-06
7.5778e-07
8.0595e-06
6.58622e-07
7.65669e-06
4.02805e-07
7.8448e-06
-1.8812e-07
8.4726e-06
-6.27843e-07
1.04408e-05
-1.96815e-06
1.15911e-05
-1.15032e-06
1.1179e-05
-6.55146e-10
9.5747e-08
3.13769e-06
-6.28889e-06
6.59373e-06
-7.34076e-06
9.06177e-06
-5.21411e-06
1.04458e-05
-2.84783e-06
1.11518e-05
-1.30507e-06
1.15637e-05
-6.04494e-07
1.18972e-05
-3.92145e-07
1.22133e-05
-3.20926e-07
1.2508e-05
-2.1564e-07
1.2751e-05
-3.86881e-08
1.29598e-05
1.50722e-07
1.31311e-05
3.4299e-07
1.3283e-05
4.90784e-07
1.34616e-05
5.508e-07
1.37511e-05
4.68311e-07
1.42045e-05
2.0518e-07
1.50162e-05
-4.08891e-07
1.61527e-05
-1.32458e-06
1.84179e-05
-2.89319e-06
2.04467e-05
-3.99697e-06
1.50722e-05
4.22416e-06
2.47046e-05
3.89192e-07
-2.93447e-07
3.18501e-06
-9.08471e-06
6.1381e-06
-1.02939e-05
8.35738e-06
-7.43339e-06
9.86376e-06
-4.35421e-06
1.09324e-05
-2.37367e-06
1.17764e-05
-1.44852e-06
1.24643e-05
-1.08002e-06
1.29934e-05
-8.50071e-07
1.33471e-05
-5.69292e-07
1.35323e-05
-2.2388e-07
1.35197e-05
1.63296e-07
1.33398e-05
5.22877e-07
1.30315e-05
7.99071e-07
1.26323e-05
9.50016e-07
1.21954e-05
9.05218e-07
1.17905e-05
6.10104e-07
1.14668e-05
-8.52564e-08
1.1411e-05
-1.26878e-06
1.24945e-05
-3.97667e-06
1.21784e-05
-3.68085e-06
5.24645e-06
1.01368e-05
2.97322e-05
7.03699e-07
-9.97146e-07
2.99558e-06
-1.13766e-05
5.64505e-06
-1.29433e-05
7.89301e-06
-9.68135e-06
9.73652e-06
-6.19772e-06
1.13262e-05
-3.9634e-06
1.26842e-05
-2.80644e-06
1.3789e-05
-2.18483e-06
1.46124e-05
-1.67351e-06
1.51315e-05
-1.08837e-06
1.53134e-05
-4.05754e-07
1.51754e-05
3.0125e-07
1.46996e-05
9.98726e-07
1.38466e-05
1.65203e-06
1.26032e-05
2.19345e-06
1.09511e-05
2.55729e-06
8.86681e-06
2.69439e-06
6.20996e-06
2.57159e-06
2.77107e-06
2.17011e-06
-2.03558e-06
8.29978e-07
-6.78372e-06
1.06724e-06
-6.62459e-06
1.06425e-05
2.30455e-05
4.52423e-07
-1.44957e-06
1.7508e-06
-1.2675e-05
4.48952e-06
-1.56821e-05
7.5367e-06
-1.27285e-05
1.02982e-05
-8.95925e-06
1.27423e-05
-6.40744e-06
1.4799e-05
-4.8632e-06
1.63676e-05
-3.75337e-06
1.74001e-05
-2.70602e-06
1.79071e-05
-1.59541e-06
1.79807e-05
-4.79359e-07
1.76703e-05
6.11693e-07
1.70329e-05
1.63613e-06
1.6059e-05
2.62595e-06
1.46983e-05
3.55415e-06
1.28812e-05
4.37438e-06
1.0504e-05
5.07156e-06
7.38309e-06
5.69251e-06
3.12138e-06
6.43182e-06
-2.93123e-06
6.88258e-06
-8.59221e-06
6.72823e-06
-7.30036e-06
9.92747e-06
1.77118e-05
2.56512e-07
-1.70607e-06
7.13798e-07
-1.31323e-05
3.57437e-06
-1.85431e-05
8.1709e-06
-1.73252e-05
1.24263e-05
-1.32146e-05
1.5704e-05
-9.68513e-06
1.8229e-05
-7.38828e-06
2.01194e-05
-5.64375e-06
2.13743e-05
-3.9609e-06
2.21681e-05
-2.38918e-06
2.26086e-05
-9.19894e-07
2.26755e-05
5.44803e-07
2.21386e-05
2.17296e-06
2.07955e-05
3.96907e-06
1.86077e-05
5.74195e-06
1.57487e-05
7.23343e-06
1.248e-05
8.34018e-06
8.99943e-06
9.17312e-06
5.51576e-06
9.91549e-06
2.51764e-06
9.8807e-06
1.5174e-07
9.09418e-06
2.01872e-07
9.87738e-06
1.79491e-05
4.50798e-06
-6.21405e-06
7.4415e-06
-1.60657e-05
1.07943e-05
-2.18959e-05
1.57184e-05
-2.2287e-05
2.08454e-05
-1.83416e-05
2.48596e-05
-1.36993e-05
2.7795e-05
-1.03237e-05
2.98247e-05
-7.67347e-06
3.0471e-05
-4.60713e-06
2.94534e-05
-1.37157e-06
2.74156e-05
1.1179e-06
2.52161e-05
2.74423e-06
2.31308e-05
4.25828e-06
2.0794e-05
6.30593e-06
1.77462e-05
8.78975e-06
1.40851e-05
1.08945e-05
1.03912e-05
1.20341e-05
7.43982e-06
1.21245e-05
5.46438e-06
1.18909e-05
5.01432e-06
1.03308e-05
6.16545e-06
7.94304e-06
5.7647e-06
1.02781e-05
2.37138e-05
1.30501e-05
-1.92629e-05
2.41263e-05
-2.7136e-05
2.98632e-05
-2.76251e-05
3.33289e-05
-2.57614e-05
3.65031e-05
-2.15117e-05
3.92533e-05
-1.64475e-05
4.12177e-05
-1.22871e-05
4.24055e-05
-8.86077e-06
4.177e-05
-3.9715e-06
3.93298e-05
1.06866e-06
3.57549e-05
4.69274e-06
3.17979e-05
6.70124e-06
2.77264e-05
8.32984e-06
2.37786e-05
1.02537e-05
2.01321e-05
1.24363e-05
1.69595e-05
1.06694e-05
1.48135e-05
1.01324e-05
1.39567e-05
8.6139e-06
1.42353e-05
6.67026e-06
1.45125e-05
4.62279e-06
1.21794e-05
4.40327e-06
3.44804e-06
8.0586e-06
9.91678e-06
1.83076e-05
-1.83064e-05
1.90311e-05
-7.2251e-07
-4.83248e-06
1.08184e-05
-1.38541e-05
3.2218e-06
-7.38028e-07
-1.05275e-05
7.51084e-06
-5.51897e-06
1.13944e-05
-1.35275e-06
1.51155e-05
-1.39686e-06
1.79031e-05
-4.87901e-07
1.17401e-05
4.47453e-06
1.80032e-05
8.97184e-06
1.11086e-05
8.06969e-06
1.92376e-05
-7.71774e-06
3.48421e-05
-1.51932e-05
4.90748e-05
-1.27115e-05
4.34033e-05
5.696e-06
2.14805e-05
2.19497e-05
-7.94681e-07
2.2302e-05
-8.86425e-07
1.70817e-05
-3.53871e-05
8.59077e-06
2.74051e-08
-1.31862e-06
1.07978e-05
1.95422e-07
1.18964e-06
4.43116e-06
-7.43341e-06
4.16237e-06
-6.19793e-06
4.11271e-06
-1.56316e-06
9.43784e-06
-3.75347e-07
8.78232e-06
2.50627e-06
5.01962e-06
6.42715e-06
8.38665e-06
3.64211e-06
3.16928e-05
2.96436e-06
2.80816e-05
-3.69533e-06
1.36597e-05
-2.57109e-06
3.68855e-06
-3.718e-06
8.57493e-06
2.44706e-07
2.29458e-05
4.46157e-06
1.33324e-05
2.58104e-05
1.23691e-05
1.31534e-05
-4.85366e-05
9.93291e-06
-9.55574e-06
-1.34815e-06
8.461e-06
1.82056e-06
5.01027e-08
8.42941e-07
-6.89634e-06
2.12028e-06
-7.77119e-06
1.34568e-06
-8.74711e-07
5.76473e-07
3.07713e-07
-1.25653e-06
4.25313e-06
-1.14851e-05
1.24647e-05
-1.42166e-05
1.46658e-05
-5.50543e-06
1.24782e-06
-6.89963e-07
-1.83763e-06
3.36707e-07
-3.66377e-06
2.13196e-06
-5.57927e-06
4.77525e-06
-2.41374e-06
7.65724e-06
1.70936e-06
1.83231e-05
7.71892e-06
3.0538e-05
2.0697e-06
-5.05548e-05
2.52396e-06
-2.58472e-05
4.92924e-06
1.22396e-06
7.57809e-06
-1.31837e-06
9.01904e-06
-3.97675e-06
1.0893e-06
-3.42333e-07
-3.9624e-06
2.11294e-06
-6.114e-06
7.78993e-06
-1.44149e-05
1.54697e-05
-2.15262e-05
1.52639e-05
-1.30626e-05
2.19638e-06
-8.95292e-06
-2.28563e-07
-5.47272e-06
-3.84265e-06
-1.22354e-06
-7.94038e-06
1.4607e-06
-8.18173e-06
5.19514e-06
-5.19881e-06
6.40426e-06
6.06864e-07
6.39973e-06
4.9126e-06
3.50571e-05
7.96921e-07
-4.29945e-05
2.89354e-06
-3.48586e-05
1.68066e-07
-9.19011e-06
8.46507e-06
-2.25395e-06
2.04013e-06
2.73646e-06
-9.95303e-06
8.95537e-06
-1.77171e-05
8.90461e-06
-2.14453e-05
1.30107e-05
-1.56294e-05
1.16585e-05
-3.89865e-06
2.43914e-06
-3.14154e-06
1.13727e-06
-2.58261e-06
2.1632e-07
-4.95505e-06
-2.00843e-06
-2.71909e-06
-8.79613e-06
8.15963e-09
-9.52878e-06
1.05443e-06
-5.13509e-06
1.86816e-06
-2.15634e-08
1.22075e-06
5.89755e-06
4.15224e-05
2.24743e-06
-1.76234e-05
5.19486e-06
-3.94183e-07
1.07923e-05
-5.97234e-07
-3.10092e-06
3.06346e-06
-1.76995e-05
1.19534e-05
-2.09149e-05
1.13628e-05
-2.18867e-05
1.10164e-05
-1.65014e-05
1.01809e-05
-2.5213e-06
3.09217e-06
-1.34194e-06
9.7759e-07
-9.02875e-07
3.65808e-07
-3.08571e-07
-3.85465e-07
-6.37927e-07
-1.4214e-07
-1.91877e-06
-1.37399e-06
-1.11127e-06
-8.95608e-06
-8.96282e-08
-5.63223e-06
2.42723e-07
7.15877e-07
-2.42319e-06
8.60305e-06
3.9949e-05
-2.25352e-08
-1.89962e-06
-5.71404e-07
-9.38877e-08
-2.17072e-06
2.96026e-08
-2.34175e-05
3.1651e-06
-2.61253e-05
1.52679e-05
-2.24833e-05
9.07442e-06
-1.96578e-05
9.46039e-06
-2.78197e-06
4.20166e-06
-9.66144e-07
1.11649e-06
-7.6898e-07
5.01558e-07
-5.91996e-07
-9.6221e-08
-3.12608e-08
-1.24762e-06
-8.93719e-08
-1.21467e-07
-7.27733e-07
-7.59521e-07
-1.16573e-06
-1.59457e-06
1.91571e-07
-4.21335e-06
4.15986e-08
3.58952e-07
-4.90123e-06
1.26153e-05
3.58188e-05
-2.42322e-08
-2.13067e-06
-2.206e-07
-4.96272e-08
-6.3744e-07
1.97869e-07
-2.74992e-05
3.74761e-06
-2.59901e-05
1.34998e-05
-1.98678e-05
4.29242e-06
-1.33564e-05
4.29641e-06
-1.00352e-06
7.34303e-06
-7.56987e-07
8.64468e-07
-8.60483e-07
4.45216e-07
-7.66302e-07
-9.04199e-07
-6.98615e-08
-1.22539e-06
-1.37765e-07
-1.24331e-07
-1.13845e-07
-8.36688e-07
-9.54811e-07
-9.39776e-07
2.31673e-07
-3.25338e-06
1.2585e-07
-1.02914e-07
-3.10374e-06
1.24901e-05
8.76679e-06
9.61785e-06
-1.94558e-05
1.55166e-05
-1.8885e-05
1.88401e-05
-1.67065e-05
2.09112e-05
-1.49657e-05
2.25297e-05
-1.25431e-05
2.39713e-05
-1.00027e-05
2.48283e-05
-7.34172e-06
2.35804e-05
-4.19365e-06
2.10047e-05
-1.07227e-06
1.88997e-05
1.14262e-06
1.80264e-05
1.70202e-06
1.72438e-05
1.72074e-06
1.63445e-05
1.79241e-06
1.50531e-05
2.05301e-06
1.29165e-05
2.18983e-06
1.1042e-05
1.87358e-06
9.89531e-06
1.4457e-06
8.85105e-06
8.63706e-07
7.90954e-06
3.28457e-07
4.5908e-06
2.47309e-07
-1.29339e-06
4.59544e-07
-4.90872e-06
2.07904e-07
2.57043e-07
-2.8579e-06
2.35536e-06
-7.46703e-14
1.82565e-06
-3.49197e-16
1.95569e-06
1.97751e-21
2.65089e-06
5.12249e-22
3.76453e-06
-6.04186e-20
5.13576e-06
-7.9267e-19
6.00548e-06
-6.43714e-18
5.90178e-06
-7.98873e-17
6.42106e-06
-1.18707e-15
7.2135e-06
-1.41486e-14
6.79181e-06
1.45398e-09
5.15852e-06
4.94564e-09
3.87734e-06
7.58207e-09
3.13435e-06
1.29362e-08
2.27803e-06
6.30009e-09
1.41434e-06
-2.17005e-09
8.45647e-07
-1.38076e-08
3.88294e-07
-9.59426e-09
6.44696e-08
-1.32148e-08
-2.26602e-07
-1.21139e-08
-3.53263e-07
1.13323e-09
-2.47854e-07
2.42288e-08
9.10304e-09
-2.8462e-11
1.36309e-16
-7.47391e-14
4.21853e-22
-2.12889e-16
1.80261e-22
7.21838e-21
-5.24353e-22
-3.48299e-22
-2.79932e-21
-5.81436e-20
-3.15941e-20
-7.64968e-19
-1.05724e-18
-5.4305e-18
-2.02976e-17
-6.09521e-17
-1.39756e-16
-1.07227e-15
2.47383e-17
-1.43738e-14
1.45925e-09
-5.24856e-12
6.49177e-09
-9.08489e-11
1.4121e-08
-1.40028e-10
2.82006e-08
-1.63041e-09
3.32091e-08
-1.37045e-10
2.75276e-08
8.34618e-10
1.12786e-08
4.7881e-10
2.80202e-10
8.63942e-11
-1.4716e-08
-7.25159e-10
-3.00258e-08
3.86276e-10
-3.10272e-08
1.10155e-09
-9.03681e-09
9.06375e-10
6.61007e-11
-1.19968e-15
-7.14794e-16
-7.39709e-14
7.61356e-21
-9.2769e-16
-3.18658e-22
2.27674e-20
-3.42654e-20
3.35985e-20
-1.07724e-19
1.53146e-20
-9.38392e-19
-8.38388e-21
-7.34346e-18
-1.54877e-19
-8.23499e-17
-3.84344e-18
-2.83224e-15
-1.00506e-16
-2.09819e-14
-1.55768e-15
-5.1945e-12
-8.7487e-14
-9.55474e-11
-7.00474e-13
-1.54496e-10
-2.67278e-12
-1.72995e-09
-6.22163e-11
-1.86613e-09
-3.79716e-11
-1.15628e-09
2.50034e-11
-7.82836e-10
7.17845e-12
-7.95318e-10
-2.00827e-11
-1.76651e-09
-9.08447e-11
-1.79847e-09
1.06922e-10
-8.90358e-10
1.44755e-10
-6.4229e-11
3.36784e-11
1.87767e-12
-3.95546e-16
-1.5381e-13
-2.55771e-13
2.81748e-20
-1.54737e-13
2.99406e-20
2.4899e-20
1.42169e-20
3.29366e-20
-1.20701e-20
1.78938e-20
-1.70593e-20
-3.39474e-21
-2.10901e-19
-5.61331e-20
-5.13835e-18
-1.15127e-18
-1.13594e-16
-1.12193e-17
-1.89476e-15
-5.06624e-17
-9.19635e-14
-6.49602e-16
-2.85558e-12
3.12927e-14
-5.16569e-12
-2.94214e-13
-6.5807e-11
-1.69636e-12
-1.03165e-10
-1.42531e-12
-8.11252e-11
1.10891e-13
-7.64073e-11
-1.10061e-12
-1.02813e-10
-4.20848e-12
-2.17656e-10
-1.10393e-11
-1.55505e-10
1.25249e-11
-2.99317e-11
1.30867e-11
-1.77377e-12
1.7627e-12
1.04196e-13
-2.45537e-16
-4.80261e-13
1.23112e-12
2.02601e-20
-9.4574e-14
2.11123e-20
-4.93138e-24
1.23421e-20
-1.80356e-22
-2.40299e-21
-7.47424e-23
-5.66694e-21
-1.30791e-22
-1.08436e-19
-1.69345e-21
-3.46002e-18
-3.11583e-20
-2.60653e-17
-4.40814e-19
-1.77796e-16
-2.50834e-18
-6.3887e-15
3.1574e-18
-1.95454e-14
-6.4429e-16
-3.05531e-13
-8.34001e-15
-1.95412e-12
-5.03237e-14
-3.35019e-12
-4.20563e-14
-3.30666e-12
-2.59806e-14
-4.60988e-12
-9.22838e-14
-9.61033e-12
-3.67201e-13
-2.22989e-11
-9.23712e-13
-1.34445e-11
9.66591e-13
-1.64991e-12
1.00368e-12
-9.93568e-14
1.10037e-13
4.88333e-15
-9.2907e-17
-2.45011e-13
2.48433e-12
-1.56019e-22
2.44831e-14
-1.55106e-22
-5.84438e-24
-5.31427e-23
-1.57636e-22
-2.92824e-23
4.45067e-24
-2.01111e-22
-9.88655e-24
-2.34535e-21
-9.30039e-23
-7.76569e-20
-1.43827e-21
-2.2189e-18
-1.44241e-20
-2.9464e-17
-3.68887e-20
-9.43118e-17
9.55582e-19
-6.79669e-16
9.55777e-18
-9.36025e-15
4.78811e-17
-5.9156e-14
-1.06826e-15
-1.00154e-13
-1.72579e-15
-1.36942e-13
-1.22604e-15
-2.55409e-13
-4.37125e-15
-6.94501e-13
-2.11224e-14
-1.74671e-12
-5.13674e-14
-1.02506e-12
6.15445e-14
-1.05512e-13
6.28733e-14
-4.76956e-15
5.52495e-15
1.06698e-16
-1.43562e-17
-1.07004e-14
3.50214e-12
-1.15901e-22
7.37703e-15
-1.01554e-22
-1.64278e-23
2.85273e-24
-1.91961e-22
-4.1838e-24
2.7419e-24
-2.2851e-23
6.04458e-24
-1.55532e-22
-2.64313e-24
-4.11042e-21
-4.86909e-23
-9.49519e-20
-3.65801e-22
-1.42096e-18
2.91108e-21
-1.24174e-17
1.4185e-19
-9.9377e-17
3.02713e-18
-3.62922e-16
1.68825e-17
-1.68653e-15
3.3933e-17
-3.91553e-15
5.55405e-17
-6.3068e-15
5.54229e-17
-1.38369e-14
7.84043e-17
-4.23707e-14
-9.08754e-16
-1.06079e-13
-2.02012e-15
-6.08539e-14
3.75016e-15
-5.18147e-15
3.70932e-15
-9.58388e-17
2.41256e-16
2.34894e-18
-2.95974e-18
-7.19451e-15
2.01605e-12
-4.34022e-22
1.82523e-16
-1.19868e-22
-3.23373e-22
1.79788e-24
-8.75724e-23
5.69184e-24
3.2343e-25
-3.49357e-24
1.20705e-24
-7.36409e-23
1.36923e-24
-1.98036e-22
-1.30776e-24
-4.37175e-21
-2.43742e-24
-7.1959e-20
3.04125e-22
-8.22793e-19
7.39358e-21
-6.45103e-18
9.31292e-20
-3.07849e-17
6.55214e-19
-8.88935e-17
3.09155e-18
-1.69387e-16
7.38824e-18
-3.04763e-16
1.35725e-17
-6.97086e-16
3.60222e-17
-2.25183e-15
1.01647e-16
-5.64361e-15
1.99698e-16
-3.34527e-15
2.01911e-16
-2.19908e-16
2.03202e-16
-1.62476e-18
1.23931e-17
8.03714e-19
-1.58212e-18
-1.76922e-16
4.71361e-16
-1.64583e-20
5.61679e-18
-8.18999e-23
-1.67011e-20
2.21099e-25
-1.57892e-23
1.30651e-24
-4.54988e-26
2.81187e-24
8.59886e-26
-6.15467e-24
1.23565e-25
-1.01169e-23
1.78486e-26
-1.83622e-22
3.06908e-25
-3.00687e-21
1.617e-23
-3.26552e-20
2.79843e-22
-2.47606e-19
2.88725e-21
-1.27241e-18
2.03173e-20
-3.9604e-18
9.61815e-20
-8.08016e-18
2.99673e-19
-1.68027e-17
7.86853e-19
-5.45327e-17
2.54241e-18
-1.79947e-16
1.20844e-17
-2.90926e-16
2.60094e-17
-1.81431e-16
2.35147e-17
-1.06572e-17
1.08149e-17
-4.02146e-19
6.08077e-19
3.13745e-19
-8.36366e-19
-5.47319e-18
4.77349e-16
-4.80816e-20
2.20641e-19
-1.52157e-23
-7.67712e-21
-1.55931e-25
-9.22831e-24
1.11928e-25
-2.8918e-26
3.52415e-25
2.64062e-27
1.82145e-25
4.64268e-27
-4.43373e-24
2.12133e-28
-6.28665e-24
2.84219e-26
-1.01995e-22
6.14681e-25
-1.07241e-21
9.55087e-24
-8.42479e-21
9.69349e-23
-4.52134e-20
7.16623e-22
-1.47269e-19
3.492e-21
-3.34753e-19
1.15834e-20
-8.21555e-19
3.39681e-20
-3.21274e-18
1.25141e-19
-1.15709e-17
5.12209e-19
-1.68106e-17
1.26054e-18
-9.41896e-18
1.62634e-18
-4.99331e-19
5.55156e-19
-2.51906e-19
1.40826e-19
2.71042e-19
-9.84434e-19
-5.38364e-18
9.54489e-16
-5.5884e-20
2.11341e-17
-1.01374e-23
1.4076e-21
-4.09687e-26
-3.64506e-24
4.3058e-27
-1.07523e-26
2.06279e-26
3.63266e-29
4.2706e-26
1.33357e-28
-1.42879e-25
-3.22262e-27
-2.55108e-25
2.53653e-26
-2.94107e-24
2.64646e-26
-3.19068e-23
3.00085e-25
-2.68911e-22
3.17958e-24
-1.53336e-21
2.52324e-23
-5.25747e-21
1.31204e-22
-1.33264e-20
4.73068e-22
-3.87081e-20
1.58098e-21
-1.71198e-19
6.59614e-21
-6.14763e-19
2.7358e-20
-8.78315e-19
6.65938e-20
-4.78652e-19
8.45466e-20
-6.34215e-20
4.04276e-20
-1.06967e-19
5.40727e-20
1.8551e-19
-2.64782e-19
-5.99639e-18
8.87873e-16
-3.72092e-20
2.58306e-17
-4.15261e-24
5.68624e-21
-1.54805e-26
-1.0898e-24
7.83671e-29
-3.64363e-27
1.22353e-27
-1.03351e-29
5.60886e-27
3.06739e-31
6.03655e-27
-8.32109e-28
-6.48119e-26
-1.39839e-27
-1.05057e-25
6.09118e-27
-8.8943e-25
1.05274e-26
-8.134e-24
1.01736e-25
-5.00495e-23
8.79393e-25
-1.84963e-22
4.97887e-24
-5.30492e-22
1.99644e-23
-1.80985e-21
7.70129e-23
-8.88237e-21
3.58803e-22
-3.25975e-20
1.55505e-21
-4.60091e-20
4.01455e-21
-2.5791e-20
6.82448e-21
-3.38599e-20
1.54933e-20
-1.22945e-19
3.9883e-20
2.56108e-19
-3.30101e-19
-6.38831e-18
5.63316e-16
-2.27238e-20
2.62985e-17
-1.57195e-24
5.65851e-21
-7.01443e-27
-3.05845e-25
-1.32203e-28
-1.655e-27
8.46907e-29
-4.72057e-30
5.56401e-28
-7.08619e-30
1.61157e-27
-1.1991e-28
-1.2555e-27
-4.58348e-28
-8.32879e-27
4.27731e-28
-2.79705e-26
4.0151e-28
-2.42558e-25
3.54955e-27
-1.62686e-24
3.39837e-26
-6.60324e-24
2.08415e-25
-2.18213e-23
9.53736e-25
-8.69016e-23
4.32328e-24
-4.39496e-22
2.19499e-23
-1.53793e-21
9.98156e-23
-2.77e-21
3.43272e-22
-4.16706e-21
1.5211e-21
-1.35504e-20
6.21844e-21
-4.54404e-20
3.16834e-20
4.83159e-19
-7.91836e-19
-6.38497e-18
3.8813e-16
-1.55598e-20
2.47341e-17
-7.00962e-25
5.44173e-21
-4.78663e-27
-1.65247e-25
-4.51435e-29
-1.29437e-27
4.95067e-30
-2.01682e-30
4.05627e-29
-7.73393e-31
1.56444e-28
-1.11836e-29
1.66421e-28
-5.25783e-29
-6.07925e-28
-6.48943e-29
-1.01391e-27
1.1509e-29
-8.53181e-27
2.31764e-28
-6.00094e-26
2.04302e-27
-2.7262e-25
1.3065e-26
-1.08553e-24
7.19582e-26
-4.91469e-24
3.89288e-25
-2.29625e-23
2.1359e-24
-7.69432e-23
1.22366e-23
-2.83437e-22
9.85823e-23
-1.73213e-21
1.29783e-21
-2.65802e-20
2.47403e-20
-6.6032e-19
5.73516e-19
1.27722e-17
-1.42235e-17
-6.23581e-18
3.70243e-16
-1.13385e-20
2.52856e-17
-5.58616e-25
4.82174e-21
-4.68638e-27
-1.37259e-25
-3.41233e-29
-1.22108e-27
1.13922e-31
-9.63023e-31
2.18693e-30
-2.42335e-32
9.66536e-30
-7.16291e-31
1.55344e-29
-3.72574e-30
-2.58984e-29
-6.86259e-30
-5.36813e-29
2.03282e-30
-5.57737e-28
3.54096e-29
-3.54324e-27
2.3513e-28
-1.87075e-26
1.63514e-27
-9.11806e-26
1.06626e-26
-4.30631e-25
6.45377e-26
-1.99475e-24
4.02003e-25
-1.14591e-23
3.4875e-24
-1.14002e-22
5.606e-23
-2.04192e-21
1.51235e-21
-5.04509e-20
3.61186e-20
-1.02316e-18
8.81385e-19
1.94563e-17
-1.16242e-17
-6.33673e-18
4.01111e-16
-7.5089e-21
2.75989e-17
-6.87772e-25
3.43059e-21
-7.22287e-27
-1.71725e-25
-4.02545e-29
-2.04946e-27
-3.42021e-31
-6.2542e-31
7.84694e-32
4.90356e-32
3.80336e-31
-2.90389e-32
3.45451e-31
-1.64382e-31
-3.85656e-30
-1.71349e-31
-7.32187e-30
8.81741e-31
-5.5394e-29
4.54495e-30
-3.67764e-28
3.55189e-29
-2.2617e-27
2.878e-28
-1.19893e-26
2.02393e-27
-5.85574e-26
1.27488e-26
-3.32299e-25
9.24861e-26
-3.16456e-24
1.14556e-24
-5.62276e-23
2.76895e-23
-1.31296e-21
8.73645e-22
-3.99422e-20
2.50663e-20
-7.08518e-19
6.90297e-19
1.78448e-17
-2.8078e-18
-6.25782e-18
4.6349e-16
-4.02072e-21
3.05464e-17
-1.47042e-24
1.74636e-21
-1.73975e-26
-3.16511e-25
-7.99989e-29
-5.25097e-27
-4.03356e-31
-1.35503e-30
-8.13918e-33
7.00178e-32
6.62266e-33
1.15788e-33
-3.13767e-32
-3.15758e-33
-9.876e-32
1.32873e-32
-8.00188e-31
7.93527e-32
-5.81968e-30
5.00315e-31
-4.64807e-29
5.24929e-30
-3.16011e-28
4.71798e-29
-1.70555e-27
3.43029e-28
-8.59417e-27
2.188e-27
-5.61011e-26
1.67945e-26
-6.84526e-25
2.20514e-25
-1.42875e-23
5.24633e-24
-3.58875e-22
1.56914e-22
-9.50409e-21
4.89087e-21
-2.2475e-19
1.58932e-19
4.83859e-18
-2.03598e-18
-5.87576e-18
5.95909e-16
-1.85026e-21
3.42795e-17
-3.8023e-24
1.23659e-21
-4.96182e-26
-6.75362e-25
-1.98915e-28
-1.765e-26
-7.56759e-31
-9.38356e-30
-4.76414e-33
1.45099e-31
-5.0245e-34
1.63878e-33
-1.02958e-33
2.62486e-34
-8.18944e-33
8.91021e-34
-6.66692e-32
4.68865e-33
-6.29604e-31
6.16025e-32
-5.67688e-30
7.04037e-31
-4.15087e-29
6.69866e-30
-2.30501e-28
5.08563e-29
-1.18153e-27
3.26735e-28
-7.35107e-27
2.41217e-27
-8.04783e-26
2.97139e-26
-1.62307e-24
7.6076e-25
-3.8357e-23
1.29619e-23
-9.56411e-22
3.83427e-22
-2.3575e-20
1.03472e-20
3.11518e-19
-1.04381e-19
-4.91982e-18
8.05178e-16
-1.82559e-21
3.80094e-17
-1.06128e-23
1.449e-21
-1.48453e-25
-1.34613e-24
-6.57846e-28
-5.76243e-26
-2.1232e-30
-7.43873e-29
-1.01135e-32
4.21996e-31
-2.0996e-34
3.44762e-33
-2.09342e-34
9.68749e-35
-5.49355e-34
4.65957e-35
-6.03977e-33
5.01663e-34
-6.50386e-32
7.25828e-33
-6.27328e-31
8.58229e-32
-4.89505e-30
8.55144e-31
-2.74801e-29
6.98521e-30
-1.32543e-28
5.00928e-29
-8.84852e-28
4.14783e-28
-2.92439e-26
8.00356e-27
-3.81575e-25
4.11347e-25
-2.39305e-24
3.32771e-24
-5.06622e-23
2.9941e-23
-9.15684e-22
6.43955e-22
1.55077e-20
3.11433e-22
-2.98676e-18
9.88692e-16
-2.78486e-21
4.41457e-17
-2.67071e-23
4.98107e-21
-3.69126e-25
-1.97443e-24
-1.99916e-27
-1.55497e-25
-7.61245e-30
-3.57309e-28
-3.50053e-32
1.34871e-30
-2.22924e-34
1.37596e-32
-4.11101e-35
8.6718e-35
-5.77897e-35
1.8246e-35
-5.40737e-34
5.55497e-35
-6.18942e-33
7.91932e-34
-6.03083e-32
9.756e-33
-4.74873e-31
1.04765e-31
-3.20316e-30
1.16661e-30
-1.67987e-29
9.91028e-30
-1.22997e-28
6.76945e-29
-1.33944e-26
2.01626e-27
-4.0288e-25
2.42955e-25
-2.42837e-25
2.09873e-24
-2.82638e-24
9.58097e-24
-1.17555e-23
3.04648e-22
5.66754e-21
4.73864e-22
4.81334e-18
9.99167e-16
-7.54367e-21
7.30468e-17
-5.6701e-23
3.25753e-20
-7.57818e-25
-8.47505e-25
-4.14774e-27
-4.08435e-25
-1.9857e-29
-1.01491e-27
-1.09819e-31
2.73723e-30
-7.09101e-34
4.48547e-32
-1.61795e-35
4.25568e-34
-1.59932e-35
1.21725e-35
-4.5512e-35
7.32048e-36
-5.05964e-34
8.2868e-35
-4.63634e-33
1.07259e-33
-6.49464e-32
1.35067e-32
-9.41919e-31
2.70159e-31
-1.95094e-30
2.13843e-30
-6.05883e-30
2.88174e-29
-8.43274e-28
9.81944e-28
-1.42219e-25
8.34585e-26
8.557e-25
7.88869e-25
-5.53232e-25
-2.23591e-23
-1.90635e-23
-2.02514e-22
2.72286e-22
6.497e-23
4.43077e-17
9.66656e-16
-1.28608e-20
1.45029e-16
-1.05725e-22
2.78401e-19
-1.53619e-24
1.76341e-23
-6.42844e-27
-1.4237e-24
-2.7784e-29
-2.72437e-27
-1.68885e-31
3.51249e-30
-1.32765e-33
7.82512e-32
-1.23831e-35
9.01814e-34
-2.78e-36
1.04869e-35
-4.15975e-36
2.28155e-36
-3.85047e-35
9.12948e-36
-3.31844e-34
1.18728e-34
-7.06825e-33
1.53162e-33
-2.69954e-31
3.81231e-32
2.62941e-30
4.34814e-31
4.32404e-29
-1.57293e-29
1.11481e-28
-3.86713e-28
-5.78621e-30
-2.01264e-27
8.7524e-27
1.28339e-25
-4.23758e-24
-3.08743e-23
-5.62704e-23
-2.66582e-22
-1.02248e-21
-2.98149e-22
6.49466e-17
8.03946e-16
1.41958e-18
1.73084e-16
-7.89167e-23
1.90883e-18
-2.74648e-24
2.46808e-22
-1.062e-26
-1.05953e-23
-2.58705e-29
-1.36846e-26
-1.40832e-31
5.8325e-30
-1.15476e-33
1.08463e-31
-9.88297e-36
1.08499e-33
-7.23798e-37
1.20727e-35
-7.5117e-37
1.07989e-36
-2.71652e-36
1.13595e-36
-2.23471e-35
1.29343e-35
-2.65272e-34
1.57658e-34
-2.98813e-32
2.44324e-33
1.32939e-30
8.52336e-32
5.66524e-30
-2.18107e-29
-3.07544e-29
-6.28465e-28
-2.56057e-27
-2.2988e-26
-1.08414e-25
-6.08072e-25
-7.04101e-24
-2.80982e-23
-7.11201e-23
-2.15939e-22
-8.85391e-22
-3.68842e-22
5.5389e-17
4.85318e-16
3.72906e-18
1.62648e-16
1.26003e-20
3.3228e-18
1.51431e-23
4.70485e-21
1.466e-26
-9.01312e-23
-5.96426e-30
-3.0535e-25
-4.19204e-32
2.48156e-29
-3.49342e-34
1.5602e-31
-3.67691e-36
1.14323e-33
-9.34647e-38
1.22552e-35
-8.06544e-38
3.95195e-37
-1.26698e-37
4.37298e-37
-1.02928e-36
1.39401e-36
-4.54591e-36
1.63758e-35
6.48465e-37
3.20529e-34
1.79463e-33
3.77564e-32
-2.31415e-30
-2.32603e-29
-9.43984e-29
-6.02062e-28
-5.85318e-27
-2.66379e-26
-2.2284e-25
-7.70928e-25
-7.3275e-24
-2.00391e-23
-6.28108e-23
-1.39353e-22
-5.47689e-22
-2.99153e-22
2.7056e-17
1.78207e-16
4.95862e-18
9.53709e-17
4.31907e-20
3.42428e-18
2.3207e-22
9.0331e-21
1.56405e-24
-1.19019e-22
7.08093e-27
-9.7077e-25
2.94384e-29
4.15252e-27
1.07424e-31
3.5134e-29
2.06106e-34
1.20849e-31
2.28834e-37
2.47458e-34
1.31966e-38
2.84867e-37
5.74236e-39
1.09955e-37
7.69338e-38
1.55278e-37
1.34362e-36
1.72498e-36
3.26215e-35
1.13662e-34
-3.31214e-34
-2.11032e-33
-4.02317e-30
-1.95235e-29
-1.25776e-28
-4.78564e-28
-7.62118e-27
-2.32736e-26
-2.47459e-25
-6.1774e-25
-5.75188e-24
-1.19039e-23
-4.34262e-23
-7.53089e-23
-2.77266e-22
-1.89384e-22
7.20526e-18
3.70372e-17
3.568e-18
2.99839e-17
5.56413e-20
1.62464e-18
4.70078e-22
8.58614e-21
5.93656e-24
-4.96732e-23
5.38462e-26
-1.71872e-25
3.36654e-28
1.62934e-26
2.25563e-30
2.64619e-28
1.65335e-32
2.43803e-30
8.95516e-35
1.67384e-32
5.39261e-37
9.03406e-35
1.49432e-38
5.12027e-37
1.58622e-38
8.11346e-38
3.5199e-37
3.00682e-37
1.389e-35
1.57593e-35
-4.23817e-33
-1.62994e-32
-4.29237e-30
-1.39429e-29
-1.22766e-28
-3.3576e-28
-7.40892e-27
-1.70881e-26
-2.04227e-25
-3.98625e-25
-3.70151e-24
-6.1371e-24
-2.48636e-23
-3.51268e-23
-1.19374e-22
-9.89612e-23
1.13918e-18
5.20203e-18
1.35078e-18
5.31825e-18
2.76695e-20
3.13662e-19
3.01898e-22
2.16614e-21
5.15752e-24
-2.29752e-24
6.67073e-26
3.55078e-25
6.37103e-28
2.04333e-26
5.0636e-30
3.40875e-28
3.51972e-32
3.82164e-30
2.17175e-34
3.53948e-32
3.37491e-36
2.96154e-34
6.42401e-37
2.55674e-36
1.81423e-38
5.83355e-38
1.14996e-37
9.45137e-38
1.07908e-36
3.39033e-36
-6.26708e-33
-1.76884e-32
-3.56229e-30
-8.846e-30
-9.86684e-29
-2.13003e-28
-5.85638e-27
-1.09213e-26
-1.38801e-25
-2.22906e-25
-2.04787e-24
-2.82736e-24
-1.22321e-23
-1.44974e-23
-4.50385e-23
-4.4345e-23
1.44038e-19
6.49547e-19
3.03119e-19
6.87966e-19
6.81469e-21
3.95434e-20
9.04272e-23
3.45881e-22
1.82575e-24
2.72206e-24
2.93899e-26
1.53864e-25
3.72191e-28
5.39869e-27
3.95835e-30
1.13693e-28
3.6949e-32
1.8369e-30
3.09613e-34
2.58846e-32
2.444e-36
3.1785e-34
4.60991e-37
2.95894e-36
1.7605e-38
4.53248e-38
2.26076e-38
1.83386e-38
-2.24389e-36
-5.60253e-36
-6.16773e-33
-1.41067e-32
-2.48621e-30
-5.09449e-30
-6.84312e-29
-1.23755e-28
-3.92567e-27
-6.20384e-27
-8.12255e-26
-1.11414e-25
-1.00178e-24
-1.18658e-24
-5.28768e-24
-5.38259e-24
-1.53111e-23
-1.75872e-23
1.91448e-20
7.8027e-20
5.08529e-20
7.79317e-20
1.17851e-21
4.3389e-21
1.73567e-23
4.7559e-23
3.83833e-25
8.5573e-25
6.96936e-27
3.46365e-26
1.0338e-28
9.80299e-28
1.34311e-30
2.02816e-29
1.55829e-32
3.61903e-31
1.64323e-34
5.82008e-33
1.6314e-36
8.61275e-35
2.68359e-38
1.08557e-36
2.5712e-39
1.24246e-38
2.87426e-39
7.25602e-40
-3.74568e-36
-8.02185e-36
-4.81912e-33
-9.51881e-33
-1.5107e-30
-2.69273e-30
-4.18973e-29
-6.63152e-29
-2.28665e-27
-3.17607e-27
-4.18479e-26
-5.05417e-26
-4.40362e-25
-4.58892e-25
-2.0266e-24
-1.80847e-24
-4.82999e-24
-6.37097e-24
2.71202e-21
8.62802e-21
6.95432e-21
7.65543e-21
1.56913e-22
4.03817e-22
2.37811e-24
5.58988e-24
5.53972e-26
1.47192e-25
1.09202e-27
5.16325e-27
1.81262e-29
1.34328e-28
2.66741e-31
2.79997e-30
3.52952e-33
5.14645e-32
4.28793e-35
8.51614e-34
4.9624e-37
1.28554e-35
5.67254e-39
1.82549e-37
9.848e-41
2.23835e-39
1.29039e-40
2.64134e-40
-3.63234e-36
-7.03983e-36
-3.16949e-33
-5.66747e-33
-8.1283e-31
-1.31314e-30
-2.29057e-29
-3.28844e-29
-1.17396e-27
-1.47814e-27
-1.91993e-26
-2.09677e-26
-1.7529e-25
-1.6436e-25
-6.85168e-25
-5.45919e-25
-1.47852e-24
-2.20909e-24
3.59596e-22
8.46786e-22
7.47927e-22
6.29336e-22
1.55414e-23
3.06195e-23
2.40006e-25
5.42933e-25
5.81719e-27
1.71312e-26
1.22558e-28
5.50347e-28
2.22178e-30
1.3809e-29
3.58613e-32
2.93765e-31
5.21819e-34
5.5847e-33
7.00345e-36
9.59405e-35
8.9617e-38
1.50908e-36
1.11438e-39
2.22353e-38
1.00926e-39
3.00513e-40
-7.60442e-40
-1.4775e-39
-2.71191e-36
-4.96109e-36
-1.79805e-33
-3.02551e-33
-3.89963e-31
-5.91376e-31
-1.12272e-29
-1.50884e-29
-5.34884e-28
-6.27936e-28
-7.87871e-27
-7.97518e-27
-6.32381e-26
-5.4496e-26
-1.99884e-25
-1.44614e-25
-4.73299e-25
-7.91937e-25
4.08562e-23
7.27603e-23
6.13716e-23
4.31661e-23
1.12571e-24
1.92545e-24
1.84163e-26
4.33548e-26
4.67546e-28
1.47848e-27
1.04467e-29
4.50787e-29
2.03005e-31
1.12076e-30
3.51455e-33
2.43309e-32
5.49963e-35
4.74441e-34
7.96502e-37
8.38424e-36
1.09965e-38
1.3625e-37
1.47028e-40
2.07731e-39
1.33173e-40
2.94955e-41
-8.63119e-40
-1.65266e-39
-1.66724e-36
-2.98703e-36
-8.8832e-34
-1.4561e-33
-1.66889e-31
-2.45408e-31
-4.92732e-30
-6.3875e-30
-2.16454e-28
-2.43515e-28
-2.88774e-27
-2.77678e-27
-2.05797e-26
-1.66456e-26
-4.82059e-26
-3.21907e-26
-1.70303e-25
-3.15987e-25
3.86311e-24
5.45487e-24
3.84342e-24
2.50541e-24
6.13281e-26
1.04656e-25
1.12343e-27
2.89957e-27
3.01471e-29
1.01544e-28
7.09548e-31
3.0142e-30
1.4556e-32
7.52907e-32
2.65814e-34
1.66264e-33
4.39598e-36
3.29856e-35
6.73987e-38
5.93599e-37
9.83781e-40
9.83937e-39
1.38412e-41
1.53004e-40
1.25595e-41
2.20162e-42
-6.34536e-40
-1.23968e-39
-8.63328e-37
-1.56704e-36
-3.82581e-34
-6.31536e-34
-6.34255e-32
-9.33624e-32
-1.92434e-30
-2.48045e-30
-7.74319e-29
-8.58825e-29
-9.39166e-28
-8.80395e-28
-5.97946e-27
-4.64403e-27
-9.08166e-27
-5.69643e-27
-6.74942e-26
-1.37452e-25
3.03369e-25
3.57608e-25
1.87289e-25
1.25938e-25
2.67447e-27
5.12257e-27
5.72135e-29
1.6691e-28
1.62531e-30
5.86849e-30
3.98969e-32
1.72322e-31
8.52213e-34
4.33958e-33
1.61909e-35
9.69068e-35
2.78789e-37
1.94063e-36
4.44828e-39
3.52331e-38
6.73833e-41
5.88808e-40
9.74793e-43
9.17896e-42
8.86502e-43
1.81301e-43
-3.60251e-40
-7.42767e-40
-3.78241e-37
-7.19677e-37
-1.42869e-34
-2.45673e-34
-2.12028e-32
-3.22981e-32
-6.61894e-31
-8.76095e-31
-2.42558e-29
-2.7355e-29
-2.68033e-28
-2.52144e-28
-1.52936e-27
-1.17031e-27
-1.37286e-27
-8.27495e-28
-2.62826e-26
-5.79914e-26
1.99442e-26
2.06467e-26
7.35434e-27
5.65225e-27
1.00592e-28
2.33192e-28
2.53331e-30
8.504e-30
7.53589e-32
2.97465e-31
1.90685e-33
8.69597e-33
4.19094e-35
2.20142e-34
8.18332e-37
4.9363e-36
1.447e-38
9.89946e-38
2.36616e-40
1.79669e-39
3.64666e-42
2.99516e-41
7.29791e-44
4.58167e-43
4.82969e-44
1.16191e-43
-1.63864e-40
-3.69245e-40
-1.39485e-37
-2.88337e-37
-4.57487e-35
-8.49631e-35
-6.14674e-33
-1.00452e-32
-1.97405e-31
-2.78135e-31
-6.55342e-30
-7.78777e-30
-6.59912e-29
-6.45228e-29
-3.37127e-28
-2.63078e-28
-2.61224e-28
-1.55976e-28
-8.99894e-27
-2.1017e-26
1.11159e-27
1.06156e-27
2.43744e-28
2.34183e-28
3.45175e-30
1.00836e-29
9.99609e-32
3.92823e-31
3.06566e-33
1.3611e-32
7.89429e-35
3.9663e-34
1.76615e-36
1.00233e-35
3.50416e-38
2.23919e-37
6.27799e-40
4.46147e-39
1.03704e-41
8.01953e-41
1.59864e-43
1.31999e-42
1.42224e-43
1.97063e-44
-9.16331e-45
-2.5176e-44
-5.98917e-41
-1.5336e-40
-4.27064e-38
-9.98548e-38
-1.23401e-35
-2.57939e-35
-1.51328e-33
-2.76794e-33
-4.98991e-32
-7.81814e-32
-1.49297e-30
-1.9547e-30
-1.36832e-29