/*--------------------------------*- C++ -*----------------------------------*\
| =========                 |                                                 |
| \\      /  F ield         | OpenFOAM: The Open Source CFD Toolbox           |
|  \\    /   O peration     | Version:  2206                                  |
|   \\  /    A nd           | Website:  www.openfoam.com                      |
|    \\/     M anipulation  |                                                 |
\*---------------------------------------------------------------------------*/
FoamFile
{
    version     2.0;
    format      ascii;
    arch        "LSB;label=32;scalar=64";
    class       volScalarField;
    location    "0.825";
    object      alpha.water;
}
// * * * * * * * * * * * * * * * * * * * * * * * * * * * * * * * * * * * * * //

dimensions      [0 0 0 0 0 0 0];

internalField   nonuniform List<scalar> 
2268
(
1
1
1
1
1
1
1
1
1
1
1
1
1
1
1
1
1
1
1
0.999997
0.999998
0.999998
0.980028
1
1
1
1
1
1
1
1
1
1
1
1
1
1
1
1
1
1
1
0.999997
0.999997
0.999998
0.96897
1
1
1
1
1
1
1
1
1
1
1
1
1
1
1
1
1
1
1
1
1
0.970068
0.913199
1
1
1
1
1
1
1
1
1
1
1
1
1
1
1
1
1
1
1
1
1
0.957981
0.912886
1
1
1
1
1
1
1
1
1
1
1
1
1
1
1
1
1
1
1
1
1
0.992291
0.95615
1
1
0.999997
1
1
1
1
1
1
1
1
1
1
1
1
1
1
1
1
1
1
1
0.999939
1
1
0.999996
0.999948
1
1
1
1
1
1
1
1
1
1
1
1
1
1
1
1
1
1
1
0.999994
0.999967
0.999948
0.999886
0.99997
0.999985
0.999992
0.999995
0.999998
1
1
1
1
1
1
0.993957
0.977673
0.957814
0.927129
0.879028
0.831272
0.786812
0.768758
0.417307
0.417307
0.155872
0.0577971
0.0762084
0.0764862
0.0764462
0.0763271
0.0505199
0.0379505
0.114134
0.454144
0.454643
0.454643
0.42227
0.430414
0.430431
0.430431
0.417814
0.417307
0.415214
0.100827
0.0323805
0.0548094
0.0445805
0.0163001
0.027627
0.0463059
0.0383983
0.0384284
0.311264
0.454643
0.323697
0.0871109
0.0282568
0.0609065
0.380708
0.417787
0.417292
0.383382
0.0932572
0.0276177
0.0166947
0.0140607
0.0123426
0.0123426
0.0123426
0.0833425
0.205908
0.204856
0.0341423
0.0182367
0.0182367
0.0177683
0.0171008
0.162207
0.417213
0.416983
0.260339
0.0442904
0.0295296
0.060039
0.0662387
0.0244414
0.0727845
0.0746055
0.0966469
0.0998117
0.0196723
0.0190008
0.0183835
0.019451
0.0218372
0.0162925
0.022397
0.347831
0.291744
0.210435
0.0862613
0.0379358
0.0657603
0.0660568
0.0876677
0.0867472
0.0857111
0.0159757
0.00289637
0.00889228
0.0187492
0.0228794
0.0228794
0.0228794
0.0106451
0.0111178
0.315649
0.11526
0.0689996
0.111581
0.0716822
0.0640641
0.0863985
0.0887202
0.0865873
0.00940499
0.00263916
0.00263589
0.00277587
0.0016299
0.0136837
0.0228794
0.00962656
0.00820194
0.0153727
0.349007
0.0265763
0.000455912
0.00270557
0.0366801
0.0894665
0.0900283
0.0898821
0.0421369
0.00254731
0.00260415
0.00263589
0.00306532
0.000781008
0.000779843
0.00719577
0.010312
0.00493314
0.0244282
0.348666
0.000949476
0.000280969
0.000455912
0.0287916
0.0900085
0.0900085
0.0900183
0.0215311
0.00236986
0.00254731
0.00551928
0.00655292
0.00080922
0.000790079
0.00102973
0.00992977
0.00521935
0.0279555
0.269175
0.934113
0.8769
0.867157
0.869831
0.879173
0.8937
0.895732
0.880403
0.844562
0.812134
0.777642
0.722769
0.659181
0.609631
0.564011
0.520653
0.492324
0.450203
0.383396
0.335299
0.328511
0.270148
0.174663
0.225145
0.150764
0.144881
0.148656
0.156253
0.16777
0.161378
0.134892
0.116061
0.121348
0.115306
0.0924243
0.065138
0.0491514
0.0375349
0.0261786
0.0179193
0.0113205
0.00461791
0.0030255
0.00277058
0.000593629
2.15919e-07
3.01426e-13
-1.38084e-28
-6.23948e-17
-1.61506e-17
-1.6856e-32
3.53479e-17
5.18149e-16
4.78134e-15
5.92918e-14
8.29598e-13
-1.51439e-10
9.52403e-08
1.80482e-06
1.17492e-05
3.53639e-05
4.24921e-05
3.17427e-05
2.85865e-05
3.62397e-05
6.71331e-05
6.41016e-05
2.33237e-05
-9.41568e-10
3.71777e-12
-1.13543e-29
-2.64472e-16
0
6.7424e-32
8.22293e-15
5.54356e-14
2.12414e-13
1.46993e-11
3.84483e-10
4.19486e-10
5.3333e-09
1.5183e-06
3.23891e-07
1.25032e-06
1.68838e-06
1.48819e-06
1.90098e-06
3.80139e-06
6.95961e-06
5.23739e-06
8.68716e-07
-3.38776e-11
4.25884e-08
-6.3868e-30
-9.63168e-16
-1.00874e-15
-4.70504e-16
-7.07444e-32
8.12332e-16
1.76398e-14
2.33997e-13
3.39806e-12
2.65725e-11
4.39507e-08
9.33065e-08
1.08196e-08
4.24676e-08
5.86348e-08
5.01818e-08
1.36189e-07
3.47769e-07
6.21796e-07
3.59952e-07
1.42262e-08
-8.18847e-13
1.00337e-07
1.73665e-08
-1.07294e-15
-1.00502e-15
-5.41031e-16
-1.08283e-35
3.479e-16
2.83287e-14
4.57735e-13
2.1524e-12
2.0172e-11
2.70874e-10
6.61041e-11
3.94173e-10
1.42202e-09
1.54921e-09
3.67612e-09
9.53685e-09
2.44275e-08
4.5055e-08
2.14594e-08
3.7903e-10
2.80016e-13
1.00387e-07
1.64945e-08
1.64609e-35
5.77901e-18
2.21744e-18
9.38184e-20
3.51537e-18
3.20763e-16
1.53978e-14
2.75241e-13
1.19995e-12
1.14155e-12
4.33527e-12
1.58492e-11
3.37823e-11
1.39085e-10
2.33982e-10
6.02407e-10
1.54692e-09
2.7199e-09
1.17697e-09
1.38632e-11
1.12322e-13
1.00383e-07
9.9792e-10
1.16954e-19
5.19637e-18
-1.38554e-19
-1.66794e-35
7.79675e-20
1.42919e-17
5.43643e-16
1.19557e-14
1.23387e-13
7.68689e-13
2.88152e-12
3.36124e-12
4.85601e-12
9.025e-12
1.67654e-11
4.5786e-11
1.14104e-10
1.57613e-10
7.44856e-11
6.94309e-13
4.45168e-14
9.48278e-08
7.0341e-19
2.75935e-19
6.63452e-18
-9.01513e-20
-2.52618e-19
-1.85801e-23
2.45116e-19
2.04513e-17
4.63841e-16
6.2221e-15
5.65574e-14
2.94569e-13
7.07638e-13
8.8892e-13
1.03865e-12
2.38415e-12
4.15613e-12
8.75886e-12
1.24885e-11
5.17726e-12
4.18217e-14
1.07636e-14
1.78977e-08
1.58548e-17
7.0341e-19
3.19121e-18
-1.16233e-20
-5.86084e-20
-1.07924e-19
4.85763e-21
6.25038e-19
1.625e-17
2.05842e-16
1.68846e-15
9.48928e-15
3.40008e-14
6.47644e-14
1.07695e-13
3.1937e-13
1.12204e-12
1.98303e-12
7.02054e-13
2.646e-13
9.63512e-15
8.81848e-15
7.34688e-15
1.14993e-15
2.22812e-15
4.86633e-19
1.63974e-21
-5.10827e-21
-1.372e-20
-6.25726e-21
8.33432e-21
4.40857e-19
5.54375e-18
4.43993e-17
2.73019e-16
1.03964e-15
2.37172e-15
5.20383e-15
1.85382e-14
8.46016e-14
1.65172e-13
9.92143e-14
1.49654e-14
2.21706e-15
7.24704e-15
1.31426e-12
5.60398e-13
2.2645e-15
3.33148e-19
1.03336e-21
-2.02219e-22
-8.31562e-22
-1.53547e-21
1.53385e-22
8.47672e-21
1.24297e-19
1.13863e-18
8.16827e-18
3.37002e-17
8.39033e-17
2.11067e-16
8.86715e-16
3.87146e-15
7.48877e-15
6.58886e-15
1.18737e-15
1.32572e-15
2.62273e-15
1.31011e-11
6.75421e-13
1.63388e-15
1.34345e-19
4.35794e-22
-3.8059e-24
-5.17602e-23
-2.1462e-22
-2.16269e-22
8.10846e-23
2.45379e-21
2.69607e-20
2.4102e-19
1.11679e-18
3.13663e-18
9.22404e-18
4.44183e-17
2.01282e-16
3.92201e-16
3.55847e-16
3.43864e-16
1.03713e-15
1.76918e-15
1.0684e-11
6.2681e-13
9.57411e-16
4.87481e-20
2.01471e-22
1.40603e-24
-3.7875e-24
-2.28853e-23
-6.27677e-23
0
3.88214e-23
6.61376e-22
7.57594e-21
4.04799e-20
1.33381e-19
4.75384e-19
2.43683e-18
1.09017e-17
2.77112e-17
5.93122e-17
1.6151e-16
5.08231e-16
4.92684e-15
6.35493e-12
5.3482e-13
6.24152e-16
2.05143e-20
1.3794e-22
1.03835e-24
-2.34695e-25
-1.8013e-24
-6.66074e-24
-6.91142e-24
6.86494e-25
3.39453e-23
4.31503e-22
2.32384e-21
9.81541e-21
4.38587e-20
2.13083e-19
9.4818e-19
3.88073e-18
1.81961e-17
8.21805e-17
8.20451e-16
1.15295e-14
4.62613e-12
4.67679e-13
4.34927e-16
1.62708e-20
1.34022e-22
8.98042e-25
-5.73083e-27
-1.05079e-25
-4.51226e-25
-7.13129e-25
1.0708e-25
8.45096e-24
5.33987e-23
2.93661e-22
1.54458e-21
7.7774e-21
3.79016e-20
1.97484e-19
1.30891e-18
1.2663e-17
2.19486e-16
3.99696e-15
3.08888e-14
4.47994e-12
4.54876e-13
2.7531e-16
2.04908e-20
2.05197e-22
1.09909e-24
6.95841e-27
-4.09237e-27
-1.95507e-26
-1.76207e-26
1.21548e-25
1.29709e-24
7.89449e-24
5.0952e-23
2.97601e-22
1.55909e-21
8.19305e-21
5.27048e-20
5.60738e-19
1.09504e-17
2.68637e-16
5.09572e-15
2.68714e-14
4.66119e-12
4.59167e-13
1.3783e-16
4.49914e-20
4.94202e-22
2.2587e-24
1.13996e-26
4.37734e-29
-3.77559e-28
9.38772e-28
2.59223e-26
1.44924e-25
1.15992e-24
8.58932e-24
5.30063e-23
2.82981e-22
1.60147e-21
1.24419e-20
1.86635e-19
4.79055e-18
1.35262e-16
3.69009e-15
7.67821e-14
5.32401e-12
4.72177e-13
5.07876e-17
1.18299e-19
1.42813e-21
5.86343e-24
2.31164e-26
1.6475e-28
2.83451e-29
2.84501e-28
1.95559e-27
1.74701e-26
1.63119e-25
1.31473e-24
8.53593e-24
4.66052e-23
2.67435e-22
1.90666e-21
2.47729e-20
6.60076e-19
1.78711e-17
5.82397e-16
1.79802e-14
6.65829e-12
4.82212e-13
5.04692e-17
3.42476e-19
4.44016e-21
2.06987e-23
7.15796e-26
3.64193e-28
1.52564e-29
1.87592e-29
1.90064e-28
2.15057e-27
2.14288e-26
1.83843e-25
1.2633e-24
7.05088e-24
4.23433e-23
4.88253e-22
1.75309e-20
1.11653e-19
2.23406e-19
9.55525e-18
3.98381e-16
8.45803e-12
5.03807e-13
1.02674e-16
9.38175e-19
1.19619e-20
7.0074e-23
2.95143e-25
1.45551e-27
1.15413e-29
3.28581e-30
2.09641e-29
2.53199e-28
2.63754e-27
2.33682e-26
1.77641e-25
1.28221e-24
8.83297e-24
1.4401e-22
1.32981e-20
9.53499e-20
2.64363e-38
8.24869e-20
1.07339e-17
9.13774e-12
6.64719e-13
4.96022e-16
2.42176e-18
2.88933e-20
1.74771e-22
9.51272e-25
5.7336e-27
3.98855e-29
1.83832e-30
2.4265e-30
2.83101e-29
3.05394e-28
3.0973e-27
4.16924e-26
2.92887e-25
4.92432e-25
9.45879e-24
3.07067e-21
5.28128e-20
-7.51382e-19
-6.30651e-18
-5.28327e-34
9.14417e-12
1.21191e-12
3.59759e-15
7.23972e-18
8.23231e-20
3.7667e-22
1.87318e-24
1.24095e-26
1.02881e-28
1.21502e-30
4.15845e-31
3.13712e-30
3.55741e-29
3.85744e-28
8.05363e-27
6.09028e-26
-7.65589e-25
-1.73744e-23
-8.37802e-23
3.7132e-21
-1.11397e-18
-8.9891e-18
-3.2317e-17
8.63925e-12
1.72978e-12
2.14334e-14
3.56767e-17
3.55128e-19
1.23712e-21
3.28395e-24
1.84771e-26
1.53469e-28
1.41026e-30
1.91621e-31
3.89794e-31
4.14128e-30
4.44148e-29
8.1352e-28
1.43907e-26
-1.11598e-24
-2.98722e-23
-1.01981e-21
-2.52718e-20
-1.09791e-18
-7.95855e-18
-3.09111e-17
6.68071e-12
1.67077e-12
5.14205e-14
1.78122e-16
1.29785e-18
6.70074e-21
8.68693e-24
2.59931e-26
1.5913e-28
1.41286e-30
5.8416e-32
4.99089e-32
4.71682e-31
5.0589e-30
5.00346e-29
1.82771e-27
-1.25587e-24
-3.04383e-23
-1.26708e-21
-3.46495e-20
-8.54574e-19
-5.66166e-18
-2.13111e-17
3.52825e-12
1.24979e-12
5.83977e-14
3.80801e-16
2.17272e-18
2.05033e-20
7.01649e-23
2.79819e-26
5.34592e-29
1.19537e-31
1.09409e-32
1.04787e-32
5.31797e-32
5.49104e-31
1.71256e-29
-1.28364e-28
-1.11587e-24
-2.5843e-23
-1.19331e-21
-3.02139e-20
-5.58028e-19
-3.4001e-18
-1.21297e-17
1.09495e-12
5.83106e-13
4.15821e-14
3.72082e-16
2.47065e-18
3.43927e-20
3.10857e-22
1.39926e-24
2.24271e-27
9.25941e-30
4.47788e-32
7.11356e-33
6.09859e-33
6.1954e-32
4.00294e-30
-1.04116e-27
-8.45527e-25
-1.94335e-23
-9.48747e-22
-2.13364e-20
-3.18361e-19
-1.77613e-18
-5.92379e-18
1.97873e-13
1.49487e-13
1.44628e-14
1.66239e-16
1.25793e-18
2.38674e-20
3.58499e-22
3.29455e-24
2.31775e-26
1.28231e-28
4.30365e-31
4.94219e-33
3.93687e-33
1.66739e-32
1.5218e-31
-1.18671e-27
-5.6994e-25
-1.32471e-23
-6.58999e-22
-1.31197e-20
-1.63287e-19
-8.27058e-19
-2.55808e-18
2.57433e-14
2.31397e-14
2.6617e-15
3.68604e-17
3.75671e-19
9.03271e-21
1.94877e-22
2.79336e-24
2.96826e-26
2.52508e-28
1.7327e-30
9.57015e-33
2.14678e-33
4.30334e-33
-4.07641e-31
-9.93358e-28
-3.48862e-25
-8.28182e-24
-4.07866e-22
-7.238e-21
-7.66837e-20
-3.48783e-19
-1.00401e-18
3.06118e-15
2.78336e-15
3.68641e-16
5.85305e-18
7.80517e-20
2.04575e-21
4.5498e-23
7.81944e-25
1.13321e-26
1.44182e-28
1.64328e-30
1.56966e-32
4.36145e-34
4.08501e-34
-6.03408e-31
-7.02547e-28
-1.95849e-25
-4.77623e-24
-2.27779e-22
-3.63282e-21
-3.33141e-20
-1.33854e-19
-3.68571e-19
3.4894e-16
3.00406e-16
4.37495e-17
7.39312e-19
1.17787e-20
3.22884e-22
7.28781e-24
1.33074e-25
2.15037e-27
3.15637e-29
4.29917e-31
5.30741e-33
5.79548e-35
7.93881e-37
-5.46207e-31
-4.37494e-28
-1.01267e-25
-2.54622e-24
-1.15612e-22
-1.66897e-21
-1.34364e-20
-4.63569e-20
-1.32244e-19
3.65149e-17
2.84996e-17
4.23804e-18
7.25516e-20
1.34248e-21
3.76263e-23
8.6839e-25
1.68216e-26
2.90382e-28
4.53881e-30
6.52754e-32
8.89964e-34
7.62088e-36
-1.17287e-34
-3.96084e-31
-2.436e-28
-4.82273e-26
-1.25307e-24
-5.34748e-23
-7.0256e-22
-5.02133e-21
-1.41359e-20
-4.9969e-20
3.40495e-18
2.30407e-18
3.23315e-19
5.50976e-21
1.18723e-22
3.36686e-24
7.94183e-26
1.61524e-27
2.94296e-29
4.8629e-31
7.41154e-33
1.06735e-34
1.00205e-36
-1.32912e-34
-2.44714e-31
-1.21896e-28
-2.10896e-26
-5.6703e-25
-2.25117e-23
-2.70166e-22
-1.72806e-21
-3.63138e-21
-2.13785e-20
2.79899e-19
1.58397e-19
1.9498e-20
3.36706e-22
8.44581e-24
2.42059e-25
5.84114e-27
1.23374e-28
2.33827e-30
4.02522e-32
6.40535e-34
9.62805e-36
9.43764e-38
-1.00853e-34
-1.31386e-31
-5.47687e-29
-8.4196e-27
-2.34323e-25
-8.58211e-24
-9.42746e-23
-5.42163e-22
-7.42858e-22
-1.01501e-20
2.02229e-20
9.35424e-21
9.54965e-22
1.76249e-23
5.0385e-25
1.46001e-26
3.59855e-28
7.81458e-30
1.52213e-31
2.69367e-33
4.40736e-35
6.76055e-37
5.91069e-39
-6.10408e-35
-6.15814e-32
-2.1985e-29
-3.04205e-27
-8.76075e-26
-2.9387e-24
-2.95678e-23
-1.53122e-22
-1.24622e-22
-4.77048e-21
1.2863e-21
4.82503e-22
3.97427e-23
8.34859e-25
2.61676e-26
7.64902e-28
1.9159e-29
4.23596e-31
8.38804e-33
1.50771e-34
2.50175e-36
3.60158e-38
1.65428e-40
-3.06084e-35
-2.51068e-32
-7.81294e-30
-9.82956e-28
-2.92575e-26
-8.93209e-25
-8.2267e-24
-3.83161e-23
-2.70233e-23
-1.97786e-21
7.2465e-23
2.22271e-23
1.48796e-24
3.68512e-26
1.2175e-27
3.5726e-29
9.0245e-31
2.01227e-32
4.00971e-34
7.23673e-36
1.20248e-37
1.4085e-39
-1.99512e-39
-1.28031e-35
-8.82063e-33
-2.4264e-30
-2.79724e-28
-8.58657e-27
-2.37276e-25
-1.99788e-24
-8.34656e-24
-8.44484e-24
-6.7195e-22
3.65211e-24
9.36388e-25
5.29141e-26
1.53286e-27
5.18106e-29
1.51757e-30
3.83221e-32
8.52552e-34
1.69295e-35
3.03448e-37
4.98876e-39
5.96025e-41
-1.32443e-39
-4.44129e-36
-2.63302e-33
-6.47661e-31
-6.88444e-29
-2.17074e-27
-5.40129e-26
-4.14952e-25
-1.54659e-24
-1.5745e-24
-1.82721e-22
1.66924e-25
3.67828e-26
1.85177e-27
6.04233e-29
2.0464e-30
5.94042e-32
1.48742e-33
3.26629e-35
6.38905e-37
1.12441e-38
1.80781e-40
2.20513e-42
-4.90765e-40
-1.25996e-36
-6.54961e-34
-1.45321e-31
-1.42858e-29
-4.60589e-28
-1.02524e-26
-7.16759e-26
-2.35989e-25
-2.07922e-25
-4.27972e-23
7.04282e-27
1.36756e-27
6.46392e-29
2.26817e-30
7.59078e-32
2.16334e-33
5.31725e-35
1.1434e-36
2.17846e-38
3.7172e-40
5.77384e-42
6.82122e-44
-1.35632e-40
-2.85918e-37
-1.32187e-34
-2.66212e-32
-2.42501e-30
-7.88508e-29
-1.56238e-27
-9.85515e-27
-2.82624e-26
-1.97479e-26
-9.78124e-24
2.70951e-28
4.86367e-29
2.25653e-30
8.17277e-32
2.67461e-33
7.41884e-35
1.76976e-36
3.68786e-38
6.7927e-40
1.11248e-41
1.64583e-43
1.49493e-45
-2.81517e-41
-5.05353e-38
-2.09715e-35
-3.83828e-33
-3.22695e-31
-1.03825e-29
-1.81147e-28
-1.01465e-27
-2.48131e-27
-1.18111e-27
-1.99826e-24
1.43569e-29
9.02289e-31
4.07897e-32
1.48155e-33
4.71237e-35
1.26648e-36
2.91558e-38
5.84731e-40
1.03666e-41
1.62559e-43
2.25176e-45
0
-4.33643e-42
-6.8055e-39
-2.54237e-36
-4.21895e-34
-3.23647e-32
-9.90302e-31
-1.49502e-29
-7.22856e-29
-1.43917e-28
-3.82905e-29
-2.19333e-25
0.0913738
0.117145
0.118739
0.118046
-1.23134e-11
5.098e-11
0.00069812
1.79807e-08
1.46542e-12
3.30251e-12
5.0878e-11
1.01983e-09
6.88833e-13
1.47918e-12
2.3286e-11
2.83506e-10
2.78831e-13
7.44684e-13
1.30894e-11
1.46009e-10
1.27882e-13
7.35056e-13
1.0158e-11
5.11852e-11
8.42118e-14
4.29842e-13
5.13017e-12
1.50911e-11
5.91239e-14
3.10694e-13
3.11562e-12
7.80729e-12
3.72407e-14
2.9296e-13
2.59111e-12
6.38264e-12
1.39352e-14
2.92585e-13
2.45132e-12
7.87751e-12
2.1111e-14
4.39777e-13
2.82508e-12
6.36323e-12
4.73499e-14
7.71679e-13
3.80327e-12
6.01934e-12
8.42344e-14
1.25572e-12
5.0099e-12
5.88857e-12
1.12063e-13
5.44921e-13
1.13601e-12
5.06792e-12
1.52316e-13
1.11684e-12
8.40394e-12
-1.01524e-10
7.21787e-13
1.39237e-11
2.23902e-10
5.27207e-09
7.13095e-13
1.5648e-11
3.39006e-10
9.47846e-09
2.69267e-12
2.88869e-11
5.69957e-10
1.76747e-08
7.5139e-13
1.4705e-11
4.36469e-10
5.0551e-09
2.65292e-14
1.18856e-12
1.07906e-11
4.34138e-13
1.35458e-15
6.08362e-14
5.06092e-14
-2.2177e-12
2.15634e-17
3.39835e-15
4.74799e-14
3.75914e-13
-1.92519e-17
6.06654e-17
2.00079e-15
2.75513e-14
-9.41274e-17
4.20967e-33
3.194e-17
1.67554e-15
-6.79289e-17
-1.13901e-16
3.13349e-17
1.21667e-16
-3.63583e-17
-7.0561e-17
8.56081e-12
3.46696e-15
-1.59965e-17
-2.72507e-17
4.08647e-12
1.9981e-11
-5.88011e-18
5.41526e-18
2.48529e-13
1.2428e-11
-1.62089e-18
5.91109e-15
1.02727e-12
3.2833e-12
-1.70645e-19
1.6198e-14
4.55255e-13
4.80797e-13
1.75212e-19
1.60439e-14
8.5469e-14
3.65001e-13
-1.42728e-21
6.08386e-15
1.59932e-14
2.20695e-13
-1.44718e-19
4.35804e-16
9.53981e-16
2.43392e-14
-1.94337e-19
8.90299e-19
9.85754e-19
2.96157e-15
-1.86136e-19
-1.35887e-17
-3.04601e-17
-3.71677e-17
-1.32539e-19
-1.07403e-17
-2.00416e-17
-2.06858e-17
-7.47568e-20
-5.47993e-18
-8.43147e-18
-7.20893e-18
-3.47216e-20
-2.27969e-18
-2.78371e-18
-1.8811e-18
-1.31419e-20
-8.03219e-19
-7.43886e-19
-3.80474e-19
-3.79376e-21
-2.22899e-19
-1.47303e-19
-5.38586e-20
-7.41616e-22
-4.26683e-20
-1.7822e-20
-4.17704e-21
-7.38809e-23
-4.14984e-21
-7.00343e-22
-6.35376e-23
0.0303
2.49691e-05
0.000347019
0.0120585
0.0500371
0.066184
0.0873073
0.0272029
0.00208505
0.00329776
0.00637332
0.00653544
0.000805365
0.00343666
0.00144839
0.00294293
0.00655219
0.0290876
0.0269464
1.29752e-07
1.67684e-06
0.000441982
0.00339948
0.00223385
0.0128004
0.0641798
0.0628632
0.00164011
0.00302256
0.00340079
0.0017277
0.000886794
0.00556697
0.00389232
0.00236157
0.0166925
0.0174161
0.0866687
1.79807e-08
8.61774e-07
6.78504e-05
8.47984e-05
0.00026071
0.0025194
0.0495347
0.0690231
0.00121645
0.000951191
0.000770557
0.000770259
0.00123233
0.00560248
0.00555666
0.00283604
0.0163114
0.00820864
0.181045
4.18068e-09
1.75727e-07
5.80694e-06
1.77879e-05
9.797e-05
0.000462118
0.0350845
0.0689827
0.0417265
0.000770769
0.000770227
0.000770769
0.00483255
0.00555666
0.00551179
0.00296567
0.0101471
0.00733842
0.181982
1.89545e-09
1.26224e-07
3.35e-06
4.78761e-06
1.90799e-05
6.73762e-05
0.0123539
0.0621452
0.0602673
0.00386442
0.000707576
0.000784945
0.00534902
0.00548553
0.00503217
0.000463903
1.11218e-05
0.00484265
0.181982
4.97018e-10
2.64792e-08
6.03223e-07
1.14742e-06
1.13043e-05
0.000258259
0.000395423
0.01035
0.040022
0.00802798
0.000643928
0.000891741
0.00518134
0.00535444
0.000717584
4.96315e-05
4.72997e-06
0.00237806
0.18053
1.6246e-10
1.7356e-09
1.60935e-08
1.9085e-07
1.79483e-05
0.000330295
2.23529e-05
9.56808e-05
0.000974397
0.000927653
0.000643928
0.00411125
0.0050371
0.00135675
5.43792e-06
4.44667e-06
4.25085e-06
0.000947855
0.202863
8.44084e-11
5.894e-10
7.0565e-09
8.57699e-08
3.24056e-05
0.000137834
6.8226e-06
1.6068e-05
4.1226e-05
7.30401e-05
0.000981033
0.00500985
0.004208
6.01107e-06
3.14895e-06
3.74754e-06
3.97667e-06
0.000702659
0.203582
6.89276e-11
4.93032e-10
6.8334e-09
1.78711e-06
1.68536e-05
4.23652e-06
4.92633e-06
6.8226e-06
1.6068e-05
0.000235702
0.00446399
0.00500985
0.00014719
2.86737e-06
3.05545e-06
3.14895e-06
3.53067e-06
0.000544821
0.203783
4.57142e-11
1.74657e-10
6.80221e-09
3.22006e-07
7.58076e-07
1.68377e-06
3.77379e-06
4.92633e-06
2.13105e-05
0.00195113
0.00492405
0.00311908
4.28492e-06
2.67954e-06
2.87e-06
1.35124e-05
3.97945e-06
0.000691958
0.203799
2.25566e-11
1.46793e-10
1.22918e-09
1.50163e-08
4.82878e-06
1.88752e-05
5.13417e-06
1.07975e-05
0.000827146
0.00609772
0.00474147
1.7836e-06
1.7836e-06
2.12746e-06
2.94561e-06
1.80589e-05
0.000162906
0.00235597
0.203783
2.57851e-11
1.93114e-10
2.66337e-09
3.35737e-08
1.06565e-05
8.44669e-05
4.8335e-05
6.22596e-05
0.0029122
0.00609772
0.000464258
1.77445e-06
1.94291e-06
3.15702e-06
4.65442e-06
2.38719e-05
0.000852952
0.00252354
0.12505
1.57116e-11
1.08935e-10
1.94678e-09
2.1649e-08
1.79751e-06
5.37798e-05
9.28782e-05
0.000217994
0.004439
0.00605809
2.14967e-06
1.94219e-06
9.27979e-06
2.48755e-05
2.26542e-05
2.69444e-05
0.00122885
0.00334378
0.00705891
7.5697e-11
1.41417e-09
2.03945e-08
2.21752e-07
1.0852e-06
1.73586e-06
1.09277e-05
0.000369886
0.00508806
0.00580233
2.10995e-06
2.40916e-06
2.43912e-05
8.21037e-05
8.299e-05
4.24975e-05
0.00100471
0.00890617
0.00628658
1.24652e-09
1.86062e-08
0.000124236
0.000687176
0.000267054
2.47739e-06
4.19089e-06
0.000493516
0.00501359
0.00388406
2.40915e-06
4.32239e-06
1.97784e-05
7.6978e-05
8.21338e-05
4.72677e-05
0.000229931
0.00876637
0.00812605
1.01048e-07
4.98371e-06
0.000834107
0.00157353
0.00131312
2.71837e-06
3.31178e-06
0.000401813
0.00432203
0.000588058
4.32123e-06
6.93429e-06
4.93668e-06
3.61364e-05
7.75703e-05
4.34669e-05
3.49896e-05
0.00458862
0.120352
2.46975e-07
0.000283256
0.00151281
0.00152208
0.000392483
2.72034e-06
2.72034e-06
0.000202927
0.00124706
4.21e-05
3.1665e-05
0.000117829
3.21605e-06
1.89212e-06
7.14851e-05
8.26613e-05
3.1182e-05
0.00373876
0.24754
5.91041e-07
0.000252105
0.0014042
1.57889e-05
8.74799e-05
0.000469246
3.73913e-06
2.88485e-05
4.62039e-05
7.00605e-05
0.00179938
0.000774735
2.26693e-06
1.65461e-06
1.47067e-05
0.000102249
3.16358e-05
0.00490762
0.249362
9.99891e-09
8.77691e-05
0.000314785
4.50408e-06
9.07832e-05
0.000807161
0.000351632
3.91512e-05
5.09096e-05
0.00116237
0.00283497
0.00111211
4.4419e-06
1.23456e-06
8.94152e-07
0.000102873
2.97317e-05
0.00494271
0.249698
8.36378e-10
4.9733e-08
1.1971e-06
3.75942e-06
6.58371e-06
0.0001897
0.000338639
7.39164e-05
5.16221e-05
0.00262574
0.00283497
0.000827122
1.57858e-06
5.94548e-07
4.98565e-07
8.98635e-05
2.28661e-05
0.00429886
0.24976
1.2628e-10
5.91384e-09
1.03706e-07
2.65476e-08
2.60419e-05
9.885e-05
0.00014449
2.32748e-05
0.00173062
0.00276635
0.00283497
0.000243399
1.32362e-06
3.74749e-07
3.74749e-07
2.5077e-06
1.20712e-05
0.00298449
0.249771
1.13554e-11
5.78992e-10
1.0937e-08
1.3976e-08
5.987e-05
0.000110044
5.55972e-05
1.89452e-05
0.000612097
0.00213079
0.00106733
9.03043e-05
1.0888e-06
3.56454e-07
3.70229e-07
3.8092e-07
6.46245e-07
0.00193464
0.249773
8.89841e-13
3.50335e-09
8.93274e-09
1.42263e-08
5.88442e-05
0.000110368
7.01853e-05
1.68925e-05
1.16676e-05
0.000335018
0.000396525
0.000142443
7.35732e-07
1.77235e-07
3.6996e-07
3.9155e-07
1.44471e-06
0.0017295
0.249774
1.24765e-07
1.97867e-07
7.77043e-08
1.39759e-08
1.57201e-05
2.88022e-05
4.41953e-06
5.73759e-06
6.76415e-06
0.000386799
0.000274068
9.86187e-06
1.3508e-07
1.84675e-08
2.03158e-07
3.87321e-07
4.60743e-06
0.00186501
0.249774
1.86156e-07
1.98022e-07
1.26656e-07
3.81109e-07
3.84125e-07
6.69899e-07
9.50331e-07
2.22635e-05
0.000144202
0.000159236
2.62981e-05
2.76781e-08
-4.48102e-10
1.93451e-09
2.72651e-07
3.61742e-05
1.93799e-05
0.00243512
0.249774
5.72787e-08
2.38085e-08
1.45472e-08
2.13493e-09
2.94707e-06
2.2651e-05
2.61794e-05
2.65373e-05
2.57688e-05
4.3279e-06
8.50875e-09
1.50193e-09
1.81318e-09
2.0235e-09
1.71232e-08
9.22184e-05
4.70692e-05
0.00470127
0.249774
2.09771e-11
8.59762e-10
1.65517e-09
1.96794e-09
2.22535e-06
6.7774e-06
6.51525e-06
4.16406e-06
1.34677e-06
2.24969e-09
1.24736e-09
1.05069e-09
1.83682e-09
2.02425e-09
2.02456e-09
7.19881e-05
4.8639e-05
0.00600368
0.138074
8.79404e-11
7.56168e-10
1.14123e-08
3.43049e-08
1.49848e-08
5.98501e-09
4.79681e-09
3.62798e-09
2.27916e-09
1.49484e-09
1.04762e-09
1.05824e-09
2.48431e-09
2.02456e-09
2.10084e-09
1.1005e-05
4.7734e-05
0.00561377
0.00440525
7.43933e-12
3.79616e-10
3.21496e-09
7.38851e-09
1.21829e-08
1.76179e-08
1.81576e-08
1.81823e-08
1.61423e-08
8.67658e-09
8.41045e-10
8.74518e-10
2.86475e-09
2.1057e-09
2.15151e-09
2.36234e-09
5.51947e-05
0.00115735
0.000627059
1.75956e-12
1.90021e-10
9.87391e-11
2.65432e-11
2.99937e-11
3.62296e-11
1.20996e-09
1.73453e-09
6.89394e-10
1.93471e-11
1.48107e-11
1.72328e-10
8.33648e-10
1.57206e-09
2.37507e-09
2.4652e-09
6.06151e-05
5.07895e-05
0.000208978
1.23033e-12
3.07738e-12
1.18096e-12
2.58753e-11
3.69665e-10
7.36412e-10
7.13302e-10
4.58536e-10
2.15354e-10
9.32824e-11
1.25366e-11
1.51656e-13
1.19366e-12
9.20124e-09
3.93902e-09
3.11648e-09
4.97032e-05
4.14227e-05
8.19635e-05
1.2054e-12
1.42093e-12
1.10022e-12
2.16677e-11
1.80123e-10
4.96699e-10
4.27606e-10
3.09768e-10
1.61175e-10
3.54574e-11
6.44737e-13
2.22692e-15
6.18497e-08
2.97133e-07
1.01512e-07
8.47491e-09
1.28837e-06
4.20453e-06
2.5989e-05
4.04272e-13
3.7308e-13
1.19555e-12
2.85018e-12
5.24444e-12
2.78867e-12
6.42606e-13
1.69042e-13
1.47619e-13
1.42989e-13
4.85007e-14
9.81979e-17
2.79399e-07
4.613e-07
2.15449e-07
1.41221e-08
3.28643e-08
2.38356e-07
4.29722e-06
1.52038e-14
1.10668e-14
1.02344e-12
2.11849e-12
2.118e-12
1.81133e-12
1.43617e-12
9.28134e-13
4.22367e-13
1.3023e-13
8.3398e-15
1.6856e-32
1.06523e-07
4.44773e-07
2.4685e-07
3.28609e-08
8.26038e-06
4.9507e-06
7.27813e-06
-2.75349e-17
-1.4966e-17
7.84997e-14
3.39327e-13
9.47262e-13
9.97474e-13
7.21294e-13
2.64287e-13
3.62464e-14
1.92696e-16
-1.6856e-32
-6.35998e-15
-1.6696e-15
2.12924e-08
1.41488e-06
6.12982e-08
2.60127e-05
1.01192e-05
9.91062e-06
-1.25572e-17
-5.66479e-18
1.02856e-15
5.60668e-14
1.6905e-13
1.26927e-13
4.37361e-14
4.61347e-15
2.61559e-17
1.0377e-33
-4.26573e-16
-5.94049e-15
-1.54705e-15
6.33905e-08
1.45243e-06
1.49661e-07
4.61411e-05
1.2172e-05
1.8074e-05
-3.46871e-18
-1.26617e-18
4.06661e-16
2.26729e-14
1.70829e-14
6.99778e-15
1.22796e-15
4.45722e-17
0
-3.67777e-18
-3.32131e-16
-4.62494e-15
-9.97768e-16
1.37781e-07
1.23485e-06
1.22981e-07
0.000112847
7.81662e-05
2.55471e-05
-6.84577e-19
-1.946e-19
5.46199e-17
1.52216e-15
1.18175e-15
4.03084e-16
3.83313e-17
6.43653e-20
-2.90692e-18
-2.92142e-18
-2.10979e-16
-3.00361e-15
-5.40101e-16
2.40695e-07
1.02674e-07
1.23683e-07
0.000129358
4.08898e-05
2.56173e-05
-1.00623e-19
-2.10647e-20
2.91821e-18
8.37367e-17
5.15324e-17
1.10362e-17
4.90764e-19
1.33312e-22
-1.33338e-18
-9.16975e-19
-1.07068e-16
-1.57881e-15
-2.78806e-16
8.00513e-08
9.52984e-08
1.22582e-07
0.000133899
2.60266e-05
2.54113e-05
-9.85552e-21
-1.44461e-21
1.41536e-19
1.81685e-18
8.0414e-19
1.03301e-19
3.69465e-21
1.2742e-24
-3.82424e-19
-1.86971e-19
-4.1047e-17
-6.34268e-16
-1.66098e-16
0
1.18103e-07
1.52998e-06
0.000130992
7.47826e-05
2.57885e-05
-4.80342e-22
-4.59641e-23
-4.02341e-24
-3.35848e-25
8.36909e-23
2.60847e-22
6.85346e-23
3.72324e-24
-7.3165e-20
-2.2384e-20
-1.06136e-17
-1.73e-16
-2.63817e-17
3.53496e-26
1.44969e-10
2.61185e-05
8.32167e-05
0.000239741
0.00384992
-2.65181e-24
-2.78966e-25
-2.50553e-26
-1.56538e-27
-7.625e-29
-3.13886e-30
-1.53688e-32
1.32632e-33
-7.15746e-21
-9.24949e-22
-1.39802e-18
-2.38687e-17
-1.40631e-18
4.82186e-14
1.34451e-10
-2.73905e-30
4.29175e-22
0.000338231
0.00418792
)
;

boundaryField
{
    leftWall
    {
        type            zeroGradient;
    }
    rightWall
    {
        type            zeroGradient;
    }
    lowerWall
    {
        type            zeroGradient;
    }
    atmosphere
    {
        type            inletOutlet;
        inletValue      uniform 0;
        value           nonuniform List<scalar> 
46
(
1.43569e-29
9.02289e-31
4.07897e-32
1.48155e-33
4.71237e-35
1.26648e-36
2.91558e-38
5.84731e-40
1.03666e-41
1.62559e-43
2.25176e-45
0
-4.33643e-42
-6.8055e-39
-2.54237e-36
-4.21895e-34
-3.23647e-32
-9.90302e-31
-1.49502e-29
-7.22856e-29
-1.43917e-28
-3.82905e-29
-2.19333e-25
-7.38809e-23
0
0
0
0
0
0
0
0
0
0
0
0
0
0
0
0
0
0
0
4.29175e-22
0.000338231
0.00418792
)
;
    }
    defaultFaces
    {
        type            empty;
    }
}


// ************************************************************************* //
