/*--------------------------------*- C++ -*----------------------------------*\
| =========                 |                                                 |
| \\      /  F ield         | OpenFOAM: The Open Source CFD Toolbox           |
|  \\    /   O peration     | Version:  2206                                  |
|   \\  /    A nd           | Website:  www.openfoam.com                      |
|    \\/     M anipulation  |                                                 |
\*---------------------------------------------------------------------------*/
FoamFile
{
    version     2.0;
    format      ascii;
    arch        "LSB;label=32;scalar=64";
    class       volScalarField;
    location    "0.825";
    object      p;
}
// * * * * * * * * * * * * * * * * * * * * * * * * * * * * * * * * * * * * * //

dimensions      [1 -1 -2 0 0 0 0];

internalField   nonuniform List<scalar> 
2268
(
1438.62
1438.56
1438.06
1437.02
1435.64
1434.08
1432.37
1430.52
1428.54
1426.44
1424.24
1421.96
1419.63
1417.29
1414.99
1412.76
1410.68
1408.83
1407.39
1406.39
1406.17
1407.08
1408.1
1260.01
1259.89
1259.44
1258.4
1257.07
1255.53
1253.81
1251.91
1249.85
1247.64
1245.33
1242.93
1240.48
1238
1235.53
1233.09
1230.71
1228.44
1226.34
1224.51
1223.03
1221.95
1224.1
1081.92
1081.74
1081.32
1080.38
1079.15
1077.67
1075.92
1073.94
1071.76
1069.41
1066.91
1064.32
1061.62
1058.86
1056.06
1053.25
1050.42
1047.45
1044.34
1040.48
1035.58
1029.31
1032.3
904.569
904.388
903.962
903.12
902.023
900.569
898.744
896.601
894.187
891.55
888.734
885.763
882.722
879.629
876.517
873.422
870.373
867.36
864.202
860.833
855.714
850.458
853.605
727.658
727.53
727.286
726.707
725.834
724.397
722.423
720.037
717.324
714.345
711.136
707.763
704.244
700.656
697.056
693.504
690.088
686.921
684.157
681.879
680.083
679.674
679.777
550.316
550.08
550.672
551.202
550.948
549.515
547.217
544.371
541.08
537.447
533.584
529.498
525.254
520.88
516.428
511.937
507.47
503.123
499.065
495.576
492.971
492.838
491.896
373.695
373.314
373.637
375.204
375.812
374.594
372.186
369.206
365.709
361.551
356.773
351.673
346.387
341.04
335.535
329.724
323.605
317.227
310.746
304.657
299.663
296.129
294.158
199.14
198.099
196.174
196.479
197.21
196.457
194.166
190.85
186.715
182.456
178.311
173.265
167.504
161.56
155.265
148.497
141.604
134.266
126.432
119.634
114.952
111.497
110.433
180.014
152.422
115.746
81.075
97.1095
106.75
90.0839
85.7015
93.56
104.57
122.448
150.056
162.451
163.958
152.781
147.852
174.932
205.339
210.12
122.974
96.5353
76.7498
52.6257
54.4981
70.4982
64.1488
59.5031
62.56
78.2162
94.4334
102.602
111.991
106.198
92.4138
85.7979
90.1644
115.562
138.962
91.8129
69.668
54.3902
45.5198
47.1282
57.5551
55.2016
50.9449
51.2714
64.531
81.2927
79.7237
79.995
79.364
75.3988
69.4822
65.8155
70.4497
108.17
62.8864
50.7858
52.3449
45.6662
45.9815
52.2327
50.0784
39.8914
37.2521
41.7754
39.536
40.2196
48.1788
58.8514
56.4301
46.3282
39.9575
43.6768
74.1285
25.9521
29.8162
43.5826
45.5086
47.2977
50.2121
39.7329
23.0066
15.6228
14.4551
14.7582
14.4847
15.7177
28.6542
32.5145
21.2886
18.8289
25.3575
40.1622
1.59281
3.87108
-2.02507
16.318
29.493
32.7011
26.8034
13.702
7.4149
7.88521
8.8199
8.44892
7.34609
10.3848
15.6944
11.7104
10.7777
15.8124
22.7086
-1.47455
-0.614307
-2.89417
-3.71533
5.5047
17.0088
19.8092
9.6628
5.78755
5.61421
6.59116
6.92298
6.21665
6.82643
7.94355
8.13121
10.8145
10.3493
17.8079
-1.02247
0.0892564
-0.0439443
-0.451557
-0.577289
9.24843
15.3495
7.07788
3.23422
2.67769
3.28106
4.27242
4.79661
5.49791
6.31967
5.71047
11.0462
5.05732
15.1615
67.8433
62.497
59.3501
59.3854
60.3274
61.4103
61.2011
59.6819
57.4895
54.4707
50.1497
45.0849
39.8146
35.9839
32.4101
28.5404
25.7019
22.6196
18.7559
16.4499
16.5354
13.1904
8.50929
10.2051
6.34936
6.0165
6.18306
6.51793
7.07462
6.74482
5.37388
4.4224
4.70278
4.43238
3.25758
1.88635
1.05616
0.458281
-0.12044
-0.564024
-0.900654
-1.08086
-1.10549
-1.10495
-1.10931
-1.05852
-1.47232
-1.48224
-1.48885
-1.51812
-1.55545
-1.58178
-1.58882
-1.5922
-1.59804
-1.60351
-1.61083
-1.62648
-1.63865
-1.63577
-1.61325
-1.57612
-1.55146
-1.53332
-1.46366
-1.41417
-1.40565
-1.33578
-1.27176
-1.56321
-1.58104
-1.59398
-1.61628
-1.64005
-1.65956
-1.67268
-1.67943
-1.68214
-1.68423
-1.68744
-1.69616
-1.70927
-1.71842
-1.70284
-1.67096
-1.64772
-1.62951
-1.58538
-1.5397
-1.51167
-1.46464
-1.41685
-1.65061
-1.67912
-1.70019
-1.71664
-1.73094
-1.74364
-1.75535
-1.7652
-1.77025
-1.77261
-1.77491
-1.77736
-1.77897
-1.77709
-1.76615
-1.74886
-1.73335
-1.71286
-1.67666
-1.64242
-1.61428
-1.58108
-1.55257
-1.76839
-1.7904
-1.80459
-1.81728
-1.82849
-1.83873
-1.84794
-1.85524
-1.8596
-1.86225
-1.86417
-1.8648
-1.86285
-1.85696
-1.8461
-1.83195
-1.81606
-1.79437
-1.76435
-1.73648
-1.71433
-1.69249
-1.67325
-1.88269
-1.89873
-1.90858
-1.91784
-1.92567
-1.93332
-1.94033
-1.94581
-1.9493
-1.95104
-1.95163
-1.95135
-1.9489
-1.94298
-1.93328
-1.92064
-1.90553
-1.88658
-1.8634
-1.84079
-1.82299
-1.80797
-1.79436
-1.99357
-2.00429
-2.01245
-2.01897
-2.02462
-2.03041
-2.03573
-2.03989
-2.04265
-2.044
-2.04364
-2.0418
-2.03826
-2.03239
-2.02393
-2.01315
-2.00028
-1.98522
-1.96836
-1.95162
-1.9373
-1.92511
-1.91468
-2.10239
-2.11047
-2.11568
-2.12001
-2.12358
-2.12751
-2.13121
-2.13423
-2.13624
-2.13714
-2.13671
-2.13467
-2.13094
-2.12541
-2.11806
-2.10902
-2.09843
-2.08651
-2.07381
-2.06132
-2.04996
-2.0399
-2.03156
-2.20939
-2.21485
-2.21836
-2.22124
-2.22342
-2.22615
-2.22886
-2.23115
-2.23261
-2.23296
-2.23212
-2.22996
-2.22638
-2.22138
-2.21503
-2.20745
-2.19879
-2.1893
-2.17938
-2.16967
-2.16068
-2.15264
-2.14599
-2.31413
-2.31783
-2.32055
-2.32279
-2.32425
-2.32621
-2.32826
-2.33002
-2.33106
-2.3311
-2.33
-2.32775
-2.32435
-2.31983
-2.3143
-2.30788
-2.30074
-2.29309
-2.28523
-2.27757
-2.27045
-2.26409
-2.25886
-2.41746
-2.42012
-2.42271
-2.42512
-2.42654
-2.42816
-2.4298
-2.43115
-2.43177
-2.43145
-2.43011
-2.42778
-2.4245
-2.42036
-2.41546
-2.40993
-2.40392
-2.39762
-2.39127
-2.38512
-2.37946
-2.37447
-2.37044
-2.52114
-2.52306
-2.52593
-2.52887
-2.53061
-2.53209
-2.53336
-2.53433
-2.53452
-2.53381
-2.53219
-2.52973
-2.52649
-2.52259
-2.51813
-2.51324
-2.50805
-2.50273
-2.49746
-2.49245
-2.48794
-2.4841
-2.48111
-2.6267
-2.62812
-2.63141
-2.63471
-2.6367
-2.63805
-2.63904
-2.6394
-2.63905
-2.63789
-2.63593
-2.63327
-2.63
-2.62621
-2.62202
-2.61755
-2.61294
-2.60832
-2.60385
-2.59971
-2.59611
-2.59325
-2.59123
-2.73504
-2.73637
-2.73987
-2.74301
-2.74488
-2.74582
-2.74622
-2.746
-2.74506
-2.74338
-2.74103
-2.73812
-2.73472
-2.73095
-2.72691
-2.72271
-2.71848
-2.71436
-2.71047
-2.70699
-2.70412
-2.70209
-2.70101
-2.84662
-2.84821
-2.85149
-2.85388
-2.85508
-2.85528
-2.8549
-2.85394
-2.8523
-2.85004
-2.84725
-2.84403
-2.84046
-2.83664
-2.83265
-2.82861
-2.82463
-2.82084
-2.81737
-2.81438
-2.81208
-2.81075
-2.81056
-2.96166
-2.96359
-2.96611
-2.96717
-2.96716
-2.96624
-2.96485
-2.96296
-2.96054
-2.95764
-2.95436
-2.9508
-2.94703
-2.94311
-2.93912
-2.93516
-2.93133
-2.92776
-2.92459
-2.92197
-2.9201
-2.91931
-2.91989
-3.08003
-3.0822
-3.08349
-3.08273
-3.08092
-3.07851
-3.07581
-3.07284
-3.06954
-3.06595
-3.06217
-3.05825
-3.05426
-3.05022
-3.0462
-3.04228
-3.03856
-3.03514
-3.03217
-3.0298
-3.02825
-3.02783
-3.02899
-3.20111
-3.20365
-3.20342
-3.20032
-3.19612
-3.19178
-3.18751
-3.18331
-3.17906
-3.17477
-3.17047
-3.16621
-3.162
-3.15785
-3.1538
-3.14991
-3.14625
-3.14293
-3.14009
-3.13789
-3.13654
-3.13635
-3.13781
-3.32376
-3.32744
-3.32572
-3.31974
-3.31242
-3.30563
-3.29957
-3.29407
-3.28886
-3.28388
-3.27911
-3.27453
-3.27013
-3.26589
-3.26181
-3.25794
-3.25434
-3.25109
-3.24833
-3.24621
-3.24495
-3.24483
-3.24629
-3.44561
-3.45317
-3.45002
-3.44061
-3.42933
-3.41958
-3.41157
-3.40477
-3.39866
-3.39306
-3.38788
-3.38305
-3.37851
-3.3742
-3.37012
-3.36628
-3.36273
-3.35954
-3.35681
-3.35471
-3.35343
-3.35324
-3.35448
-3.56162
-3.58018
-3.57473
-3.5617
-3.54587
-3.53286
-3.52295
-3.515
-3.50817
-3.5021
-3.49664
-3.49165
-3.48703
-3.48271
-3.47866
-3.47487
-3.47136
-3.46821
-3.46549
-3.46334
-3.46196
-3.46156
-3.46246
-3.67681
-3.69676
-3.69495
-3.68041
-3.66036
-3.64446
-3.63309
-3.62438
-3.61712
-3.61082
-3.60525
-3.60022
-3.59561
-3.59134
-3.58734
-3.58361
-3.58016
-3.57704
-3.57434
-3.57205
-3.57052
-3.56984
-3.57026
-3.78571
-3.80199
-3.80651
-3.79245
-3.77061
-3.75329
-3.74147
-3.73261
-3.72535
-3.7191
-3.7136
-3.70868
-3.70418
-3.70001
-3.69612
-3.69246
-3.68907
-3.68597
-3.68322
-3.68088
-3.67912
-3.67808
-3.67795
-3.8891
-3.89907
-3.90739
-3.89759
-3.87525
-3.85869
-3.84791
-3.83964
-3.8328
-3.82688
-3.82166
-3.81698
-3.81268
-3.80869
-3.80495
-3.80136
-3.79806
-3.79498
-3.79219
-3.78974
-3.78775
-3.78633
-3.78564
-3.98826
-3.99218
-4.00049
-3.99458
-3.97691
-3.96222
-3.95275
-3.94567
-3.93957
-3.93421
-3.92944
-3.92511
-3.9211
-3.91733
-3.91376
-3.91034
-3.90711
-3.90406
-3.90122
-3.89866
-3.89644
-3.89465
-3.8934
-4.08448
-4.0839
-4.09054
-4.08789
-4.07568
-4.06422
-4.05658
-4.05088
-4.0458
-4.04119
-4.03699
-4.0331
-4.02944
-4.02594
-4.02258
-4.01933
-4.0162
-4.01319
-4.01033
-4.00766
-4.00522
-4.00308
-4.00132
-4.17879
-4.17598
-4.18099
-4.1807
-4.17331
-4.16544
-4.15996
-4.15571
-4.15173
-4.14796
-4.1444
-4.14101
-4.13774
-4.13455
-4.13143
-4.12836
-4.12534
-4.12239
-4.11952
-4.11676
-4.11413
-4.11168
-4.10947
-4.27269
-4.26973
-4.27383
-4.27505
-4.27136
-4.26681
-4.26339
-4.26052
-4.25761
-4.25468
-4.25178
-4.24891
-4.24604
-4.24318
-4.24031
-4.23743
-4.23455
-4.23168
-4.22882
-4.226
-4.22323
-4.22053
-4.21794
-4.36802
-4.36584
-4.36955
-4.37181
-4.37092
-4.36897
-4.36728
-4.36561
-4.36366
-4.36151
-4.35924
-4.35687
-4.35441
-4.35187
-4.34926
-4.34659
-4.34387
-4.34109
-4.33827
-4.33542
-4.33255
-4.32967
-4.3268
-4.4661
-4.46455
-4.46806
-4.47124
-4.47239
-4.47231
-4.47193
-4.47123
-4.47008
-4.4686
-4.46689
-4.46497
-4.4629
-4.46068
-4.45833
-4.45588
-4.45331
-4.45066
-4.44791
-4.44507
-4.44215
-4.43916
-4.43609
-4.56741
-4.56598
-4.56945
-4.57344
-4.57589
-4.57698
-4.57751
-4.57751
-4.57698
-4.57605
-4.57481
-4.5733
-4.57157
-4.56965
-4.56756
-4.56532
-4.56294
-4.56042
-4.55777
-4.55498
-4.55207
-4.54903
-4.54586
-4.67184
-4.67029
-4.67384
-4.67829
-4.6813
-4.683
-4.68407
-4.68454
-4.68446
-4.68394
-4.68308
-4.68191
-4.68049
-4.67884
-4.67699
-4.67496
-4.67276
-4.6704
-4.66788
-4.6652
-4.66235
-4.65934
-4.65615
-4.77901
-4.77739
-4.78099
-4.78538
-4.78837
-4.79028
-4.79159
-4.79232
-4.79253
-4.79231
-4.79173
-4.79084
-4.78967
-4.78827
-4.78665
-4.78483
-4.78283
-4.78065
-4.77829
-4.77575
-4.77302
-4.7701
-4.76698
-4.88832
-4.88683
-4.8903
-4.89417
-4.89679
-4.89864
-4.9
-4.90082
-4.90119
-4.90116
-4.90078
-4.90011
-4.89916
-4.89798
-4.89657
-4.89496
-4.89317
-4.89118
-4.88901
-4.88664
-4.88408
-4.88132
-4.87836
-4.99913
-4.99792
-5.00101
-5.00411
-5.00626
-5.00791
-5.00915
-5.00997
-5.01039
-5.01047
-5.01024
-5.00972
-5.00896
-5.00797
-5.00677
-5.00537
-5.00378
-5.00201
-5.00005
-4.9979
-4.99556
-4.99302
-4.99028
-5.11086
-5.10999
-5.1125
-5.11482
-5.11649
-5.11786
-5.11893
-5.11966
-5.12008
-5.1202
-5.12006
-5.11968
-5.11906
-5.11825
-5.11724
-5.11604
-5.11468
-5.11313
-5.11141
-5.10952
-5.10744
-5.10519
-5.10275
-5.22308
-5.22248
-5.22438
-5.22602
-5.22727
-5.22835
-5.22921
-5.22982
-5.23018
-5.23032
-5.23023
-5.22994
-5.22946
-5.22881
-5.22798
-5.227
-5.22586
-5.22456
-5.22311
-5.2215
-5.21974
-5.21782
-5.21573
-5.33552
-5.33511
-5.33644
-5.33755
-5.33845
-5.33924
-5.33989
-5.34036
-5.34066
-5.34078
-5.34073
-5.34052
-5.34016
-5.33965
-5.33901
-5.33823
-5.33733
-5.33629
-5.33513
-5.33384
-5.33242
-5.33087
-5.3292
-5.44805
-5.44773
-5.44859
-5.4493
-5.4499
-5.45044
-5.45089
-5.45121
-5.45142
-5.45152
-5.45149
-5.45135
-5.45109
-5.45072
-5.45026
-5.44971
-5.44905
-5.44829
-5.44743
-5.44648
-5.44543
-5.44429
-5.44307
-5.56052
-5.56024
-5.56075
-5.56116
-5.56149
-5.56181
-5.56207
-5.56226
-5.56238
-5.56244
-5.56243
-5.56234
-5.56218
-5.56196
-5.56169
-5.56135
-5.56094
-5.56047
-5.55994
-5.55935
-5.5587
-5.55799
-5.5572
-5.67292
-5.67275
-5.67293
-5.67306
-5.67316
-5.67326
-5.67335
-5.67341
-5.67345
-5.67347
-5.67347
-5.67344
-5.67339
-5.67331
-5.67322
-5.6731
-5.67296
-5.6728
-5.67262
-5.67242
-5.67218
-5.67192
-5.67161
4.12544
5.25995
5.65442
5.62841
-1.0886
-1.12053
-1.11327
-1.10068
-1.25385
-1.26259
-1.27759
-1.28884
-1.39221
-1.39478
-1.39375
-1.39019
-1.53305
-1.53022
-1.53496
-1.54344
-1.66093
-1.65568
-1.65622
-1.66416
-1.78558
-1.7821
-1.78352
-1.79023
-1.90713
-1.90399
-1.90544
-1.91146
-2.02531
-2.02249
-2.02349
-2.02893
-2.14111
-2.13907
-2.13999
-2.14482
-2.25515
-2.25399
-2.25515
-2.25958
-2.36783
-2.36771
-2.36944
-2.37365
-2.47955
-2.48073
-2.48355
-2.48781
-2.59071
-2.59351
-2.59829
-2.60351
-2.70155
-2.70605
-2.71351
-2.7217
-2.81216
-2.81816
-2.82871
-2.84283
-2.92253
-2.92983
-2.94353
-2.96484
-3.0325
-3.04073
-3.05685
-3.08446
-3.14184
-3.1504
-3.16736
-3.19744
-3.25042
-3.25852
-3.27456
-3.3018
-3.35815
-3.36537
-3.37902
-3.40044
-3.46538
-3.47122
-3.4821
-3.49794
-3.57229
-3.5767
-3.58493
-3.5966
-3.67907
-3.6821
-3.68792
-3.69636
-3.78586
-3.78753
-3.7912
-3.79686
-3.89277
-3.89316
-3.89493
-3.89815
-3.99991
-3.99914
-3.99929
-4.00042
-4.1074
-4.10563
-4.10442
-4.10381
-4.21531
-4.21273
-4.21042
-4.20839
-4.32373
-4.32051
-4.31734
-4.3142
-4.43272
-4.42902
-4.42523
-4.42127
-4.5423
-4.53831
-4.53408
-4.52958
-4.65252
-4.64838
-4.64393
-4.63912
-4.7634
-4.75926
-4.75478
-4.74983
-4.87493
-4.87096
-4.86666
-4.86204
-4.98711
-4.98342
-4.97941
-4.97506
-5.09991
-5.09661
-5.09304
-5.08917
-5.21331
-5.21047
-5.20751
-5.20428
-5.32729
-5.32515
-5.32274
-5.32023
-5.44168
-5.44017
-5.43844
-5.43668
-5.55631
-5.55527
-5.55431
-5.55342
-5.67123
-5.67089
-5.67073
-5.67078
0.320814
-0.353456
-0.382702
-1.79536
-1.76316
1.92726
9.98243
6.24507
0.977785
-0.201574
0.260224
1.26007
2.47198
3.54333
6.43842
5.98379
10.7823
2.36129
-0.92734
-1.16757
-0.989757
-1.08747
-2.37165
-3.46072
-2.05915
3.88585
3.61767
0.0842536
-1.31394
-0.873743
-0.182455
0.917482
1.23397
6.31494
6.33042
10.6251
4.80416
-1.65085
-1.29935
-1.2204
-1.39499
-2.3131
-3.20948
-2.77566
-1.35973
-0.491302
0.246587
-1.48588
-1.38696
-0.943417
-0.164402
0.150817
4.22869
5.26127
7.42127
6.27428
3.52243
-1.41868
-1.4677
-1.64642
-2.16966
-2.72827
-2.34801
-2.23716
-2.60831
-0.820239
-1.63933
-1.6575
-1.34001
-1.04621
-0.519322
1.47437
2.13432
0.656121
3.54637
6.42128
-1.5635
-1.64678
-1.82654
-2.05957
-2.30728
-2.04846
-1.27039
-0.975102
-0.562458
-1.61322
-1.59208
-1.37522
-1.26738
-0.932468
-0.463679
-0.363061
-0.770522
0.146455
2.45803
-1.68972
-1.76988
-1.91067
-2.02179
-2.08351
-1.85978
-1.51176
-1.0214
0.249143
-0.752023
-1.06979
-1.01625
-1.23687
-1.39352
-1.39513
-1.28898
-1.35183
-1.26298
0.587704
-1.81238
-1.8771
-1.9682
-2.02687
-1.99904
-1.82705
-1.55713
-1.22202
-0.837878
-0.526099
-0.687548
-0.603822
-1.26646
-1.75947
-1.76279
-1.77454
-1.84594
-1.98007
0.061116
-1.9304
-1.97925
-2.03229
-2.05114
-1.99679
-1.88065
-1.65778
-1.28281
-0.705789
-0.426691
-0.434079
-0.505011
-1.45795
-1.85373
-1.98522
-2.16642
-2.27827
-2.52987
-1.0077
-2.04553
-2.0825
-2.11143
-2.10733
-2.05745
-1.95063
-1.76598
-1.39092
-0.813057
-0.456413
-0.338812
-0.917848
-1.60288
-1.95011
-2.18022
-2.4853
-2.71616
-2.90499
-1.9107
-2.15969
-2.18945
-2.20531
-2.19611
-2.16498
-2.07844
-1.91708
-1.59718
-1.10348
-0.693069
-0.800146
-1.58599
-1.71091
-2.10542
-2.35644
-2.68446
-2.8802
-2.83772
-1.83716
-2.2738
-2.30109
-2.31036
-2.30232
-2.29703
-2.25549
-2.18008
-2.05624
-1.73096
-1.29538
-1.84205
-1.97962
-1.99325
-2.29861
-2.53658
-2.87885
-3.0237
-2.67357
0.670486
-2.38843
-2.41835
-2.42405
-2.4133
-2.4282
-2.44911
-2.48978
-2.65425
-2.84936
-2.08154
-2.45122
-2.27311
-2.30796
-2.49305
-2.70491
-3.11616
-3.44939
-3.57566
0.156316
-2.50501
-2.54612
-2.5499
-2.52166
-2.53768
-2.61609
-2.77747
-3.18639
-3.78749
-2.84576
-2.73089
-2.63926
-2.601
-2.67821
-2.80437
-3.23209
-3.75882
-4.51972
-4.66264
-2.62578
-2.69101
-2.69734
-2.62589
-2.61264
-2.72878
-3.00168
-3.54934
-4.30237
-3.34255
-3.06153
-3.0346
-2.87885
-2.84962
-2.814
-3.02492
-3.18786
-3.80452
-4.41466
-2.75525
-2.8661
-2.90024
-2.77262
-2.67844
-2.80891
-3.15957
-3.86514
-4.52573
-3.81614
-3.47506
-3.44462
-3.15809
-3.00952
-2.7699
-2.66235
-2.16281
-2.28031
-3.93097
-2.89303
-3.0588
-3.17541
-3.02801
-2.87437
-2.90459
-3.24732
-4.11759
-4.53967
-4.20271
-3.92654
-3.82831
-3.41925
-3.15177
-2.74133
-2.46124
-1.75566
-1.66654
-6.54672
-3.03362
-3.26329
-3.45658
-3.29802
-3.12147
-2.98248
-3.29374
-4.18242
-4.63436
-4.41185
-4.29763
-4.11309
-3.6271
-3.26812
-2.75773
-2.45123
-1.87686
-1.62855
2.30955
-3.163
-3.43252
-3.62963
-3.4732
-3.2524
-3.03962
-3.30267
-4.12695
-4.6075
-4.54866
-4.62403
-4.3097
-3.75432
-3.35185
-2.80155
-2.53305
-2.04567
-2.01016
3.11435
-3.27258
-3.51899
-3.73056
-3.58801
-3.38442
-3.17034
-3.34674
-3.97081
-4.43181
-4.62437
-4.89531
-4.38431
-3.79569
-3.39365
-2.83971
-2.6374
-2.20218
-2.39284
0.950826
-3.3609
-3.54673
-3.7282
-3.6733
-3.507
-3.3827
-3.43638
-3.82711
-4.23781
-4.62655
-4.93421
-4.29468
-3.74991
-3.37739
-2.85657
-2.73812
-2.30816
-2.63277
0.0803879
-3.44193
-3.56085
-3.69513
-3.69276
-3.59876
-3.52566
-3.53518
-3.75766
-4.06662
-4.51496
-4.63157
-4.06307
-3.64175
-3.31757
-2.85842
-2.80068
-2.37757
-2.77535
0.0760124
-3.52791
-3.59795
-3.686
-3.71125
-3.67477
-3.63548
-3.65147
-3.76475
-3.88163
-4.03102
-4.11744
-3.82459
-3.52766
-3.24699
-2.85871
-2.82449
-2.42496
-2.86763
0.201914
-3.61905
-3.66215
-3.71846
-3.74798
-3.74261
-3.72675
-3.7384
-3.78725
-3.79481
-3.80422
-3.80924
-3.67065
-3.44069
-3.18913
-2.85471
-2.81556
-2.43909
-2.93563
0.613335
-3.71259
-3.7415
-3.77741
-3.79993
-3.80228
-3.79479
-3.78869
-3.78171
-3.76457
-3.73725
-3.70963
-3.59681
-3.39617
-3.15351
-2.84896
-2.77718
-2.4073
-2.99497
1.2225
-3.80766
-3.82712
-3.84935
-3.86297
-3.86287
-3.85393
-3.84136
-3.82155
-3.7794
-3.74355
-3.69178
-3.57598
-3.38471
-3.14036
-2.84698
-2.71694
-2.33456
-3.01221
1.68287
-3.90444
-3.9165
-3.92935
-3.93571
-3.93197
-3.91993
-3.9027
-3.87472
-3.82445
-3.77012
-3.70282
-3.58585
-3.39939
-3.15356
-2.85795
-2.64263
-2.22355
-2.90818
4.28262
-4.00315
-4.0092
-4.01505
-4.01557
-4.00809
-3.99307
-3.9707
-3.93533
-3.87889
-3.81406
-3.73863
-3.62239
-3.44202
-3.19905
-2.89629
-2.59315
-2.09883
-2.40256
2.08323
-4.10373
-4.10497
-4.10518
-4.10066
-4.08935
-4.07094
-4.04432
-4.0045
-3.94601
-3.87657
-3.79661
-3.68317
-3.51319
-3.28096
-2.97605
-2.61706
-2.06613
-2.18797
-3.49327
-4.2061
-4.20358
-4.1994
-4.19085
-4.1763
-4.155
-4.12511
-4.08248
-4.0236
-3.95329
-3.87356
-3.76809
-3.61406
-3.39933
-3.10603
-2.73845
-2.24745
-2.3285
-3.1566
-4.31019
-4.30482
-4.2974
-4.28593
-4.26903
-4.24558
-4.21343
-4.16959
-4.11227
-4.04515
-3.9709
-3.87757
-3.74219
-3.55059
-3.28782
-2.95263
-2.57803
-2.60222
-2.93838
-4.41597
-4.40855
-4.39891
-4.38554
-4.36723
-4.34264
-4.30978
-4.26684
-4.21339
-4.15259
-4.08708
-4.00791
-3.89306
-3.73153
-3.51868
-3.24513
-2.97138
-2.93061
-2.97638
-4.52342
-4.51468
-4.50369
-4.48936
-4.47058
-4.44606
-4.41416
-4.3741
-4.3263
-4.2736
-4.21847
-4.15511
-4.06371
-3.9412
-3.79714
-3.59935
-3.38302
-3.29331
-3.19931
-4.6325
-4.62307
-4.61151
-4.59701
-4.57864
-4.55532
-4.5258
-4.49008
-4.44909
-4.40562
-4.36211
-4.31663
-4.25279
-4.17934
-4.12313
-4.00983
-3.82083
-3.69733
-3.54514
-4.74317
-4.73361
-4.72214
-4.70815
-4.69095
-4.66973
-4.64364
-4.61327
-4.57993
-4.54668
-4.51591
-4.49021
-4.45826
-4.44127
-4.48852
-4.46909
-4.30065
-4.15367
-3.97705
-4.85538
-4.84617
-4.83532
-4.82244
-4.80704
-4.78861
-4.76671
-4.74247
-4.7174
-4.69523
-4.67806
-4.6734
-4.67611
-4.71608
-4.86959
-4.95476
-4.81547
-4.65761
-4.47446
-4.96897
-4.96055
-4.95081
-4.93955
-4.92649
-4.91144
-4.89439
-4.87692
-4.86058
-4.85009
-4.84705
-4.86394
-4.90153
-4.99327
-5.24022
-5.43636
-5.33812
-5.19527
-5.02091
-5.08384
-5.07658
-5.06838
-5.05922
-5.04905
-5.03798
-5.02639
-5.01614
-5.00879
-5.00993
-5.02101
-5.05849
-5.12826
-5.26346
-5.59161
-5.88889
-5.82703
-5.7367
-5.60687
-5.19991
-5.1941
-5.18781
-5.18115
-5.17432
-5.16766
-5.16185
-5.15884
-5.16035
-5.17224
-5.19635
-5.25071
-5.34524
-5.5093
-5.91331
-6.27481
-6.23592
-6.28126
-6.19562
-5.31692
-5.31274
-5.30854
-5.30459
-5.30122
-5.29898
-5.29879
-5.30255
-5.31227
-5.3334
-5.3683
-5.43335
-5.53946
-5.70965
-6.15269
-6.4826
-6.4699
-6.77683
-6.84841
-5.4345
-5.43201
-5.42996
-5.4287
-5.42872
-5.43072
-5.4358
-5.44582
-5.46301
-5.49198
-5.53551
-5.60581
-5.71005
-5.8613
-6.24461
-6.43754
-6.43733
-7.00556
-7.48132
-5.55246
-5.5518
-5.55204
-5.55363
-5.55722
-5.56368
-5.5743
-5.59095
-5.616
-5.65327
-5.70569
-5.7811
-5.87999
-6.00226
-6.23614
-6.25926
-6.04589
-6.93964
-10.754
-5.6712
-5.67266
-5.67557
-5.68055
-5.68846
-5.70046
-5.7181
-5.74346
-5.77904
-5.82843
-5.89389
-5.98202
-6.08399
-6.19622
-6.29218
-6.16699
-5.93562
-7.59553
-18.6206
)
;

boundaryField
{
    leftWall
    {
        type            calculated;
        value           nonuniform List<scalar> 
50
(
1438.62
1260.01
1081.92
904.569
727.658
550.316
373.695
199.14
67.8433
10.2051
-1.47232
-1.56321
-1.65061
-1.76839
-1.88269
-1.99357
-2.10239
-2.20939
-2.31413
-2.41746
-2.52114
-2.6267
-2.73504
-2.84662
-2.96166
-3.08003
-3.20111
-3.32376
-3.44561
-3.56162
-3.67681
-3.78571
-3.8891
-3.98826
-4.08448
-4.17879
-4.27269
-4.36802
-4.4661
-4.56741
-4.67184
-4.77901
-4.88832
-4.99913
-5.11086
-5.22308
-5.33552
-5.44805
-5.56052
-5.67292
)
;
    }
    rightWall
    {
        type            calculated;
        value           nonuniform List<scalar> 
50
(
210.12
138.962
108.17
74.1285
40.1622
22.7086
17.8079
15.1615
-0.92734
-1.65085
3.52243
6.42128
2.45803
0.587704
0.061116
-1.0077
-1.9107
-1.83716
0.670486
0.156316
-4.66264
-4.41466
-3.93097
-6.54672
2.30955
3.11435
0.950826
0.0803879
0.0760124
0.201914
0.613335
1.2225
1.68287
4.28262
2.08323
-3.49327
-3.1566
-2.93838
-2.97638
-3.19931
-3.54514
-3.97705
-4.47446
-5.02091
-5.60687
-6.19562
-6.84841
-7.48132
-10.754
-18.6206
)
;
    }
    lowerWall
    {
        type            calculated;
        value           nonuniform List<scalar> 
62
(
1528.14
1528.07
1527.58
1526.54
1525.16
1523.6
1521.89
1520.04
1518.06
1515.96
1513.76
1511.47
1509.15
1506.81
1504.5
1502.28
1500.2
1498.35
1496.9
1495.9
1495.68
1496.59
1495.83
1408.1
1224.1
1032.3
853.605
679.777
491.896
294.158
110.433
8.84588
11.2974
11.7733
11.7118
180.014
122.974
91.8129
62.8864
25.9521
1.59281
-1.47455
-1.02247
217.422
189.83
129.775
86.3332
104.014
113.679
97.0098
92.6167
98.1673
108.053
132.745
190.758
203.198
204.705
190.633
186.432
213.513
243.921
247.573
)
;
    }
    atmosphere
    {
        type            calculated;
        value           nonuniform List<scalar> 
46
(
-5.72904
-5.72904
-5.72904
-5.72904
-5.72904
-5.72904
-5.72904
-5.72904
-5.72904
-5.72904
-5.72904
-5.72904
-5.72904
-5.72904
-5.72904
-5.72904
-5.72904
-5.72904
-5.72904
-5.72904
-5.72904
-5.72904
-5.72904
-5.72904
-5.72907
-5.72932
-5.72988
-5.73114
-5.73388
-5.73847
-5.74564
-5.75638
-5.77207
-5.79449
-5.82596
-5.86911
-5.92791
-6.00349
-6.10506
-6.21376
-6.3402
-6.39142
-6.09507
-5.72904
-7.66484
-29.6978
)
;
    }
    defaultFaces
    {
        type            empty;
    }
}


// ************************************************************************* //
