/*--------------------------------*- C++ -*----------------------------------*\
| =========                 |                                                 |
| \\      /  F ield         | OpenFOAM: The Open Source CFD Toolbox           |
|  \\    /   O peration     | Version:  2206                                  |
|   \\  /    A nd           | Website:  www.openfoam.com                      |
|    \\/     M anipulation  |                                                 |
\*---------------------------------------------------------------------------*/
FoamFile
{
    version     2.0;
    format      ascii;
    arch        "LSB;label=32;scalar=64";
    class       volScalarField;
    location    "0.825";
    object      p_rgh;
}
// * * * * * * * * * * * * * * * * * * * * * * * * * * * * * * * * * * * * * //

dimensions      [1 -1 -2 0 0 0 0];

internalField   nonuniform List<scalar> 
2268
(
1528.14
1528.07
1527.58
1526.54
1525.16
1523.6
1521.89
1520.04
1518.06
1515.96
1513.76
1511.47
1509.15
1506.81
1504.5
1502.28
1500.2
1498.35
1496.9
1495.9
1495.68
1496.59
1495.83
1528.56
1528.44
1527.99
1526.95
1525.62
1524.08
1522.36
1520.46
1518.4
1516.19
1513.88
1511.48
1509.03
1506.55
1504.08
1501.64
1499.26
1496.99
1494.89
1493.06
1491.57
1490.5
1484.32
1529.5
1529.32
1528.9
1527.96
1526.73
1525.25
1523.5
1521.53
1519.34
1516.99
1514.5
1511.9
1509.2
1506.44
1503.65
1500.83
1498
1495.03
1491.93
1488.06
1483.16
1463.51
1441.07
1531.18
1531
1530.58
1529.73
1528.64
1527.18
1525.36
1523.22
1520.8
1518.16
1515.35
1512.38
1509.34
1506.24
1503.13
1500.04
1496.99
1493.97
1490.82
1487.45
1482.33
1450.77
1425.69
1533.3
1533.18
1532.93
1532.35
1531.48
1530.04
1528.07
1525.68
1522.97
1519.99
1516.78
1513.41
1509.89
1506.3
1502.7
1499.15
1495.73
1492.57
1489.8
1487.53
1485.73
1479.12
1450.13
1535
1534.76
1535.35
1535.88
1535.63
1534.19
1531.9
1529.05
1525.76
1522.13
1518.26
1514.18
1509.93
1505.56
1501.11
1496.62
1492.15
1487.8
1483.74
1480.25
1477.65
1477.52
1476.51
1537.41
1537.02
1537.34
1538.85
1539.52
1538.31
1535.9
1532.92
1529.42
1525.26
1520.48
1515.38
1510.1
1504.75
1499.25
1493.44
1487.32
1480.94
1474.46
1468.37
1463.37
1459.84
1457.87
1541.88
1540.8
1538.85
1539.07
1539.91
1539.18
1536.9
1533.59
1529.46
1525.2
1521.06
1516.01
1510.25
1504.3
1498.01
1483.13
1454.4
1420.42
1371.43
1300.11
1231.36
1168.27
1142.99
217.422
189.83
129.775
86.3332
104.014
113.679
97.0098
92.6167
98.1673
108.053
132.745
190.758
203.198
204.705
190.633
186.432
213.513
243.921
247.573
235.197
208.197
104.068
61.5813
69.4709
82.7269
68.7903
67.1834
75.2515
88.7862
105.012
186.376
234.231
193.308
116.052
93.6472
106.773
217.967
251.314
278.846
241.539
96.5362
58.3161
55.0405
64.2897
61.1679
56.9112
57.2378
102.244
173.808
171.769
95.7088
87.9659
84.0006
77.8746
73.9094
143.425
295.168
324.539
214.382
80.6968
64.778
84.1918
94.3239
66.005
86.0801
84.5807
102.902
102.643
53.1608
60.6997
70.9859
69.2328
60.6246
50.7831
58.3236
292.493
261.565
199.989
113.815
76.8465
101.03
104.183
111.097
93.6299
85.4122
28.1187
17.895
22.4472
31.6134
47.8741
51.7344
40.5085
28.2022
35.1111
295.015
115.958
72.7302
108.722
87.816
93.4971
118.675
115.062
99.8621
17.6512
11.466
12.3975
12.1642
9.93408
24.8301
39.1854
22.1647
19.8306
31.9192
367.01
30.5853
1.07942
1.4149
40.0907
110.677
122.835
125.465
59.8126
9.91264
9.80536
10.8192
11.6503
8.28832
8.89674
17.4727
21.2832
17.7132
39.912
424.312
1.5939
1.80889
1.91036
39.5122
121.503
131.329
137.443
37.3025
7.75589
7.4374
12.0274
14.4053
7.22484
7.90047
9.04369
20.373
19.3902
43.8996
377.576
1453.62
1363.48
1345.9
1349.9
1364.68
1387.29
1390.1
1365.86
1310.55
1259.48
1204.04
1117.66
1018.16
940.897
869.718
801.594
756.775
691.271
588.405
514.823
504.848
415.014
268.831
368.45
246.765
237.113
243.26
255.629
274.43
263.975
220.647
189.863
198.52
188.678
151.255
106.659
80.5041
61.5042
42.9356
29.4083
18.6182
7.82023
5.27302
4.86972
1.41679
0.527543
0.215701
0.205776
0.199168
0.169901
0.132566
0.106236
0.0992036
0.0958223
0.0899764
0.0845144
0.0771902
0.0617035
0.0524123
0.0720628
0.134407
0.183552
0.190089
0.202907
0.285476
0.387056
0.390472
0.391571
0.416263
0.227112
0.209281
0.196348
0.174047
0.150275
0.130763
0.117645
0.110899
0.108184
0.106092
0.102885
0.0941775
0.083771
0.0724813
0.0897204
0.12238
0.145262
0.164217
0.211742
0.263068
0.28802
0.327243
0.373475
0.242097
0.213513
0.192443
0.175989
0.161686
0.148987
0.137278
0.127433
0.122378
0.120019
0.117718
0.115348
0.113838
0.115563
0.126562
0.14388
0.15937
0.180025
0.216629
0.251381
0.279031
0.31158
0.340056
0.226746
0.204564
0.190344
0.177652
0.166445
0.156206
0.146998
0.139696
0.135336
0.132681
0.130767
0.130139
0.132084
0.13797
0.148833
0.162991
0.178877
0.200585
0.230633
0.25854
0.280645
0.302445
0.321687
0.214757
0.198544
0.188654
0.179402
0.171571
0.163918
0.156903
0.151431
0.147941
0.146201
0.145612
0.145889
0.148334
0.154263
0.163956
0.176597
0.191707
0.210663
0.233842
0.256451
0.274251
0.289272
0.302876
0.206194
0.195255
0.187094
0.180569
0.174924
0.169132
0.163814
0.159655
0.156893
0.155544
0.1559
0.157745
0.16128
0.167152
0.175616
0.186395
0.199262
0.214324
0.231185
0.247919
0.262241
0.274436
0.284865
0.199677
0.191376
0.186164
0.181838
0.178271
0.17434
0.170637
0.167612
0.165604
0.164709
0.165141
0.167173
0.170904
0.176437
0.183785
0.192825
0.203413
0.21534
0.22804
0.240526
0.251891
0.26195
0.270285
0.194808
0.189303
0.185789
0.182914
0.180733
0.178005
0.175294
0.173004
0.171544
0.171188
0.172031
0.174191
0.177766
0.182767
0.189122
0.196703
0.205356
0.214854
0.224768
0.234478
0.243472
0.251515
0.258157
0.192329
0.188626
0.185901
0.183662
0.182202
0.180246
0.178198
0.176431
0.175391
0.175359
0.176455
0.178706
0.182108
0.186621
0.192153
0.198573
0.205716
0.213366
0.221221
0.228889
0.23601
0.242364
0.247599
0.191297
0.188635
0.186051
0.183641
0.182219
0.180597
0.17896
0.177612
0.176991
0.177311
0.178647
0.180982
0.184259
0.188397
0.193295
0.198825
0.204836
0.211135
0.217494
0.22364
0.2293
0.234286
0.238322
0.189922
0.188006
0.185136
0.182191
0.180453
0.178971
0.177702
0.176736
0.176545
0.177253
0.178869
0.181336
0.18457
0.188471
0.192929
0.197823
0.203012
0.208332
0.213602
0.218611
0.223124
0.226968
0.229955
0.186667
0.185245
0.181961
0.178663
0.176665
0.175321
0.174331
0.173972
0.174319
0.175482
0.177435
0.180097
0.183373
0.18716
0.191347
0.195814
0.20043
0.205048
0.209518
0.213659
0.217257
0.220122
0.222138
0.180632
0.179301
0.175805
0.172658
0.170795
0.169852
0.169454
0.16967
0.170612
0.172292
0.174638
0.177555
0.180948
0.184718
0.188759
0.192959
0.197189
0.201316
0.205202
0.208684
0.211553
0.21358
0.214659
0.171358
0.169764
0.166487
0.164101
0.1629
0.162694
0.163074
0.16404
0.165674
0.167934
0.170725
0.173948
0.177515
0.181337
0.185324
0.189368
0.19335
0.197141
0.200608
0.203595
0.205895
0.20723
0.207421
0.158624
0.156694
0.15417
0.153107
0.153126
0.154038
0.155435
0.15732
0.159743
0.162643
0.165918
0.16948
0.173255
0.177174
0.181162
0.185124
0.18895
0.192517
0.19569
0.198312
0.200178
0.200975
0.200391
0.142554
0.140383
0.139093
0.139859
0.141664
0.144074
0.146775
0.149745
0.153049
0.156635
0.160419
0.164333
0.168329
0.172364
0.17638
0.1803
0.184027
0.187445
0.190417
0.192783
0.194333
0.194752
0.193592
0.123776
0.121235
0.12147
0.124569
0.128771
0.133107
0.137383
0.141576
0.145825
0.15012
0.154415
0.158676
0.162887
0.167034
0.171085
0.174979
0.178638
0.181956
0.184797
0.186997
0.188345
0.188543
0.18708
0.103432
0.0997496
0.101475
0.107456
0.114775
0.121559
0.127625
0.133123
0.138329
0.143314
0.148088
0.152665
0.157067
0.161308
0.165382
0.169254
0.172859
0.176106
0.178868
0.180985
0.182244
0.182366
0.180902
0.0838926
0.0763282
0.0794744
0.0888868
0.100171
0.109916
0.11793
0.124732
0.130838
0.136437
0.141616
0.146447
0.150993
0.155296
0.159374
0.163213
0.166768
0.169963
0.172686
0.174791
0.176072
0.176254
0.175015
0.0701857
0.0516184
0.057077
0.0700974
0.0859347
0.0989398
0.108856
0.116803
0.123635
0.129699
0.135162
0.140151
0.14477
0.149089
0.153144
0.156937
0.16044
0.163595
0.166308
0.16846
0.169843
0.170238
0.16934
0.0572968
0.0373427
0.0391568
0.0536944
0.0737506
0.0896452
0.10102
0.10973
0.116984
0.123282
0.12886
0.133887
0.138493
0.142768
0.146763
0.150495
0.153944
0.157066
0.159771
0.162056
0.163586
0.164269
0.163851
0.0506985
0.0344223
0.0298989
0.0439627
0.0657974
0.0831172
0.094942
0.103796
0.111063
0.117314
0.122809
0.127734
0.132232
0.136399
0.140292
0.14395
0.147339
0.150439
0.153195
0.15553
0.157288
0.158332
0.158461
0.0496122
0.0396427
0.0313228
0.0411211
0.0634614
0.0800216
0.0908006
0.0990742
0.105919
0.111835
0.117051
0.12174
0.126035
0.130027
0.133762
0.137357
0.140659
0.143733
0.146528
0.148972
0.150962
0.152382
0.153076
0.0527559
0.0488434
0.0405279
0.0464389
0.0641092
0.0787979
0.0882643
0.0953454
0.101451
0.106805
0.111577
0.115911
0.119923
0.123691
0.127264
0.130678
0.133912
0.136962
0.139795
0.142358
0.144579
0.146371
0.14762
0.0588448
0.0594267
0.052781
0.0554339
0.0676401
0.079108
0.0867438
0.0924431
0.0975225
0.102131
0.106331
0.11022
0.113884
0.117379
0.120741
0.123989
0.127123
0.130133
0.132994
0.135667
0.138104
0.140245
0.142008
0.0668415
0.0696486
0.0646348
0.064923
0.0723188
0.0801853
0.0856721
0.089921
0.0938979
0.0976694
0.101225
0.104616
0.107889
0.111077
0.114201
0.11727
0.120286
0.123238
0.126108
0.128871
0.131495
0.133943
0.136158
0.0752405
0.0782065
0.0740992
0.0728831
0.0765706
0.0811245
0.0845462
0.0874159
0.0903233
0.0932536
0.0961512
0.0990258
0.101891
0.104754
0.107623
0.110499
0.113378
0.116252
0.119109
0.121933
0.124705
0.127403
0.129991
0.0822172
0.0843982
0.0806846
0.0784312
0.0793191
0.081263
0.0829545
0.0846232
0.0865721
0.0887232
0.0909966
0.0933703
0.0958303
0.0983665
0.100973
0.103643
0.10637
0.109147
0.111964
0.114813
0.117685
0.120567
0.123441
0.0864412
0.0879948
0.0844762
0.0813003
0.0801551
0.0802308
0.0806089
0.0813132
0.0824617
0.0839387
0.0856548
0.0875675
0.0896445
0.0918627
0.0942066
0.0966643
0.0992262
0.101884
0.104633
0.107469
0.110388
0.113385
0.116454
0.0874359
0.0888614
0.0853938
0.0814065
0.0789582
0.0778622
0.0773391
0.0773343
0.0778612
0.0787912
0.0800363
0.081544
0.0832728
0.0851923
0.0872814
0.0895244
0.0919097
0.0944291
0.0970792
0.0998601
0.102771
0.105812
0.108985
0.0853046
0.0868598
0.0833132
0.0788621
0.0758452
0.0741466
0.0730826
0.0726109
0.0726925
0.0732067
0.0740742
0.075241
0.076664
0.078311
0.0801579
0.0821871
0.0843858
0.0867462
0.0892667
0.0919496
0.0947967
0.0978114
0.101
0.080446
0.0820683
0.0784594
0.0740695
0.07108
0.0691779
0.0678619
0.0671312
0.0669261
0.0671464
0.0677265
0.0686175
0.0697799
0.0711828
0.0728021
0.0746194
0.0766223
0.078804
0.0811644
0.0837075
0.0864368
0.089357
0.0924768
0.0734395
0.0749311
0.07146
0.0675911
0.0649665
0.0631152
0.0617625
0.0609344
0.0605723
0.0606026
0.0609755
0.0616508
0.0625951
0.0637812
0.0651863
0.0667937
0.0685925
0.0705774
0.0727495
0.0751136
0.0776734
0.080434
0.0834027
0.0649311
0.0661374
0.0630562
0.0599478
0.057806
0.0561571
0.0549077
0.0540942
0.0536728
0.0535954
0.0538268
0.0543372
0.0551005
0.0560935
0.0572965
0.0586958
0.060283
0.0620547
0.0640128
0.0661613
0.0685025
0.0710402
0.0737802
0.0555022
0.05638
0.0538632
0.0515437
0.0498769
0.0485026
0.0474319
0.0467034
0.0462908
0.0461656
0.0463057
0.046691
0.0473022
0.0481209
0.0491313
0.0503233
0.0516913
0.0532341
0.0549529
0.0568491
0.0589234
0.0611781
0.0636193
0.0455872
0.0461879
0.0442868
0.0426488
0.0413981
0.0403195
0.0394597
0.0388525
0.0384888
0.038355
0.0384382
0.0387261
0.0392058
0.0398637
0.0406881
0.0416714
0.0428112
0.0441085
0.0455615
0.0471703
0.0489336
0.0508537
0.0529379
0.0354534
0.0358657
0.0345321
0.0334236
0.0325257
0.03173
0.0310846
0.0306141
0.0303196
0.0301989
0.0302461
0.0304558
0.0308195
0.0313272
0.03197
0.0327431
0.0336469
0.0346816
0.0358457
0.0371368
0.0385549
0.0401007
0.0417713
0.0252336
0.0255511
0.0246909
0.0239776
0.0233805
0.0228378
0.0223935
0.0220666
0.0218546
0.0217594
0.0217848
0.0219309
0.0221911
0.022555
0.0230159
0.0235734
0.0242319
0.024991
0.0258471
0.0267981
0.0278454
0.0289855
0.0302103
0.0150638
0.0153388
0.0148334
0.0144252
0.014091
0.013776
0.0135165
0.0133253
0.0131999
0.0131406
0.0131545
0.0132435
0.0134018
0.0136208
0.0138977
0.0142372
0.0146414
0.0151089
0.015639
0.0162305
0.0168827
0.0175969
0.0183794
0.00496464
0.0051376
0.00495885
0.00482489
0.0047243
0.00462369
0.00454069
0.00447577
0.00443375
0.00441529
0.00442129
0.00445035
0.00450157
0.00457405
0.00466897
0.00478722
0.00492655
0.00508517
0.00526723
0.00547268
0.00570567
0.00597121
0.00627674
141.018
180.345
183.101
182.047
0.497121
0.465182
1.57836
0.485063
0.434174
0.425431
0.410433
0.399182
0.39811
0.395543
0.396573
0.400135
0.359576
0.362405
0.357674
0.349194
0.334006
0.339256
0.33871
0.330769
0.311661
0.315138
0.313719
0.307013
0.292416
0.29555
0.294105
0.288081
0.276538
0.279352
0.278358
0.27292
0.26304
0.265077
0.264157
0.259326
0.251302
0.252464
0.251301
0.246879
0.240934
0.241054
0.239317
0.235111
0.231515
0.230329
0.227513
0.223252
0.222657
0.219863
0.215078
0.209856
0.214119
0.209627
0.202165
0.193968
0.205817
0.199815
0.189267
0.175166
0.197755
0.190454
0.176755
0.155469
0.190088
0.181856
0.165736
0.138182
0.183048
0.174489
0.157528
0.127465
0.176772
0.168671
0.152635
0.125389
0.171351
0.164132
0.150474
0.129055
0.166424
0.16058
0.149704
0.133862
0.161814
0.157409
0.149179
0.137504
0.157345
0.154311
0.148489
0.140049
0.152859
0.15118
0.147511
0.141854
0.14825
0.147861
0.146085
0.14287
0.143409
0.14418
0.144032
0.142905
0.13823
0.139996
0.141207
0.141822
0.132619
0.135202
0.137513
0.139545
0.126502
0.129725
0.132893
0.136032
0.119823
0.123516
0.127315
0.13127
0.112541
0.116539
0.12076
0.125264
0.104626
0.108769
0.113216
0.118033
0.0960574
0.100191
0.104674
0.109625
0.0868281
0.0907982
0.0950959
0.0997161
0.0769534
0.0806431
0.0846478
0.0890033
0.0664551
0.0697595
0.0733256
0.0771937
0.0553594
0.0582003
0.0611655
0.0643891
0.0436895
0.0458271
0.0482325
0.0507462
0.0316006
0.0331087
0.0348433
0.0365953
0.019269
0.0203095
0.0212734
0.0221664
0.00665681
0.00699634
0.0071552
0.00711257
46.7066
1.16696
1.61497
17.5579
73.8716
101.491
140.849
48.0413
5.55109
6.16888
11.1884
12.4285
5.14888
10.1196
10.0682
11.8284
21.9756
46.9504
40.4887
0.418347
0.598616
1.1984
4.59929
1.66371
19.804
107.141
104.787
4.26812
5.05991
6.09927
4.14017
3.908
11.6385
14.0666
11.6572
38.654
33.9792
137.229
0.388704
0.469072
0.407452
-0.482085
-1.08182
3.1609
83.8603
117.593
3.98595
1.80616
1.60048
2.04352
3.60173
11.2865
15.2871
11.7318
36.6158
21.8048
310.513
0.37165
0.32294
0.154292
-0.347521
-0.762724
0.268826
62.3029
122.56
75.5993
1.52955
1.5104
1.82886
9.3873
11.2093
13.1227
9.22884
20.5948
18.4617
333.693
0.329133
0.246092
0.0724202
-0.157885
-0.378573
-0.0284386
23.9802
118.418
115.28
7.586
1.63839
2.00153
10.7388
11.3319
10.9435
2.40669
1.14314
11.1953
348.43
0.305213
0.225109
0.0854671
-0.0245681
-0.0660469
0.649852
1.27123
21.6004
82.0055
17.2422
2.20845
2.75587
11.0842
11.2725
2.0299
0.804867
0.652525
5.47127
362.367
0.284855
0.220144
0.129073
0.0707632
0.135799
0.962206
0.586942
1.07568
3.30086
3.5147
2.75881
10.1071
11.3842
3.18035
0.345845
0.332011
0.2602
2.10306
427.185
0.269144
0.220296
0.167267
0.14859
0.273958
0.621762
0.556753
0.952041
1.58434
1.93335
3.92113
12.7029
9.98802
0.359016
0.221237
0.0413586
-0.069987
1.21365
448.531
0.256316
0.219346
0.190433
0.198629
0.283155
0.360959
0.547193
0.926611
1.52574
2.38744
12.2282
12.9044
1.03744
0.358327
0.128651
-0.176208
-0.406196
0.649692
468.999
0.244456
0.214703
0.19886
0.208819
0.24099
0.329753
0.496133
0.818801
1.35185
6.39721
13.4303
8.30941
0.703533
0.305163
0.0546001
-0.247852
-0.466494
1.22834
490.04
0.232656
0.205366
0.196096
0.204176
0.221512
0.29823
0.339232
0.477256
2.84662
16.4794
12.5368
0.531297
0.51767
0.213177
-0.0227526
-0.327176
-0.109335
5.7321
513.439
0.220331
0.190405
0.184718
0.195547
0.208333
0.379785
0.244951
0.116763
7.34904
16.4188
1.36746
0.340279
0.305866
0.12394
-0.0840232
-0.44519
1.38229
5.60983
328.665
0.206052
0.164948
0.161167
0.189461
0.17825
0.240629
0.185141
0.115073
10.9459
16.2727
-0.0140076
0.0770595
0.135196
0.100221
-0.031946
-0.448053
2.2804
7.24748
17.1664
0.187589
0.122358
0.116088
0.188102
0.203775
0.0894711
-0.157595
0.303609
12.8113
15.7786
-0.242236
-0.214458
0.00307236
0.194504
0.232614
-0.0921057
2.44931
24.0401
16.0675
0.160427
0.0496264
0.377305
2.14462
1.01509
0.11398
-0.23169
0.488024
12.9933
10.4129
-0.552371
-0.516355
-0.184811
0.130374
0.38501
0.391005
1.4226
26.1697
22.6539
0.125251
-0.0258022
2.35737
4.73409
4.10261
0.121584
-0.219359
0.111836
11.509
0.588236
-0.895537
-0.789422
-0.386392
-0.0248451
0.51052
0.68779
1.36781
15.1859
359.328
0.0874275
0.739946
4.37938
4.56682
1.22225
0.146276
-0.164977
-0.429581
2.3732
-1.16033
-1.07864
-0.625517
-0.49679
-0.141944
0.585385
0.926721
1.34062
13.1461
777.05
0.0614864
0.601677
4.11357
-0.199789
0.251819
1.69364
-0.0680467
-0.811487
-1.23617
-1.10053
4.39139
1.40703
-0.524437
-0.123938
0.468384
1.01871
1.27876
17.0118
809.125
0.0523456
0.0974291
0.639905
-0.248157
0.242008
2.83559
1.14612
-0.515873
-0.937819
2.56141
7.84613
2.63453
-0.456046
-0.0646643
0.488148
1.02919
1.22146
17.3496
833.665
0.0662985
-0.119362
-0.29691
-0.233233
-0.0572647
0.693982
1.15024
-0.146845
-0.633876
7.79055
8.19927
1.96438
-0.317312
0.051837
0.572331
0.996745
1.19733
15.5127
858.627
0.0875731
-0.0313341
-0.165264
-0.163171
0.0225565
0.352381
0.503786
-0.146092
5.565
8.76859
8.89395
0.324644
-0.107584
0.213245
0.672395
0.737662
1.19449
11.2774
884.291
0.103895
0.0338589
-0.0541545
-0.0794006
0.174247
0.395584
0.182047
-0.0642082
1.97097
7.33165
3.38683
0.134851
0.108093
0.38611
0.774435
0.808696
1.20919
7.78339
910.053
0.115059
0.0719722
0.0156764
-0.0138238
0.21101
0.419072
0.257526
0.00986932
-0.0171804
1.17963
1.40405
0.594825
0.296161
0.545643
0.880781
0.920008
1.30041
7.25016
936.096
0.124294
0.0956699
0.0593007
0.0365299
0.094377
0.152009
0.0646575
0.0766911
0.0977649
1.5816
1.17717
0.277393
0.440755
0.682973
0.988228
1.06072
1.44677
7.98923
962.335
0.131784
0.11237
0.0898665
0.0772452
0.0773597
0.0874235
0.101091
0.204765
0.726723
0.821727
0.350409
0.362841
0.554004
0.798363
1.09281
1.36411
1.68041
10.5082
988.425
0.136806
0.124616
0.111729
0.105314
0.120948
0.212533
0.244001
0.273431
0.3206
0.288371
0.338232
0.455172
0.641633
0.887463
1.18314
1.77067
2.00749
20.1117
1016.65
0.140178
0.134129
0.128285
0.127761
0.144449
0.178309
0.199589
0.225227
0.270005
0.329271
0.404704
0.520935
0.701308
0.944278
1.24704
1.84815
2.24582
26.5911
577.74
0.141896
0.140663
0.140494
0.145111
0.156345
0.174716
0.201326
0.241138
0.299625
0.369068
0.449026
0.562465
0.732451
0.964678
1.26958
1.67525
2.38195
25.8678
19.4367
0.141831
0.144358
0.148551
0.157115
0.171686
0.193011
0.222905
0.265528
0.324402
0.394678
0.474377
0.579845
0.733888
0.948607
1.24191
1.60949
2.34022
7.04647
3.91501
0.140047
0.145418
0.152834
0.164305
0.181203
0.20466
0.236813
0.280656
0.337972
0.405085
0.479334
0.572666
0.708053
0.89965
1.16243
1.49762
2.14169
2.07381
2.44093
0.13657
0.143991
0.153628
0.166998
0.185317
0.209904
0.24276
0.285699
0.33915
0.399956
0.465466
0.544629
0.65948
0.821055
1.03388
1.30742
1.80721
1.81032
1.94893
0.131425
0.140166
0.15115
0.165489
0.18427
0.208785
0.240682
0.280748
0.328548
0.381248
0.436376
0.499733
0.591424
0.71503
0.858177
1.05553
1.27782
1.38109
1.57639
0.124652
0.134083
0.145635
0.160142
0.178507
0.20183
0.231345
0.267071
0.30806
0.35153
0.39504
0.440524
0.505685
0.579998
0.635044
0.74739
0.936478
1.06095
1.23244
0.116286
0.125839
0.137316
0.151303
0.1685
0.189728
0.215814
0.246182
0.279526
0.312778
0.343545
0.369248
0.401714
0.420347
0.372129
0.390524
0.598906
0.729818
0.917734
0.106375
0.115589
0.126434
0.139313
0.154714
0.173152
0.195048
0.219287
0.24436
0.266526
0.283702
0.288362
0.28565
0.245788
0.0991806
0.00730258
0.275232
0.35431
0.536419
0.0950964
0.103517
0.11325
0.124511
0.137569
0.152619
0.16967
0.18714
0.203479
0.213973
0.217016
0.200122
0.162536
0.0711176
-0.168815
-0.371536
-0.0406326
-0.0696305
0.134589
0.0825215
0.0897863
0.0979826
0.107146
0.117318
0.128385
0.139976
0.15023
0.157575
0.156435
0.145358
0.107872
0.0381085
-0.0963808
-0.418868
-0.721889
-0.0782366
-0.166905
-0.308648
0.0687607
0.0745705
0.0808654
0.0875165
0.0943527
0.101012
0.106817
0.109833
0.108324
0.0964274
0.0723222
0.017961
-0.0765664
-0.23936
-0.644094
-1.00549
-0.286385
-0.797372
-0.792116
0.0540519
0.058234
0.0624313
0.0663865
0.0697563
0.0719919
0.0721834
0.0684238
0.058703
0.0375796
0.00267916
-0.062376
-0.168484
-0.338241
-0.781208
-1.11096
-0.380474
-1.2662
-1.34108
0.03878
0.0412712
0.0433234
0.0445831
0.0445639
0.0425591
0.0374761
0.0274565
0.0102658
-0.0187014
-0.0622315
-0.132531
-0.236769
-0.388019
-0.770686
-0.9559
-0.247808
-1.12338
-1.86703
0.0231215
0.0237813
0.023543
0.0219512
0.0183681
0.0119059
0.0012842
-0.0153713
-0.0404187
-0.0776828
-0.130103
-0.205521
-0.304402
-0.426678
-0.660552
-0.538194
-0.00678972
-0.0286976
16.2657
0.00668356
0.00523169
0.00232165
-0.0026642
-0.0105758
-0.0225706
-0.0402139
-0.0655762
-0.101149
-0.150538
-0.216007
-0.304128
-0.406102
-0.518327
-0.614295
-0.4891
-0.25773
0.000873132
10.812
)
;

boundaryField
{
    leftWall
    {
        type            fixedFluxPressure;
        gradient        uniform 0;
        value           nonuniform List<scalar> 
50
(
1528.14
1528.56
1529.5
1531.18
1533.3
1535
1537.41
1541.88
1453.62
368.45
0.215701
0.227112
0.242097
0.226746
0.214757
0.206194
0.199677
0.194808
0.192329
0.191297
0.189922
0.186667
0.180632
0.171358
0.158624
0.142554
0.123776
0.103432
0.0838926
0.0701857
0.0572968
0.0506985
0.0496122
0.0527559
0.0588448
0.0668415
0.0752405
0.0822172
0.0864412
0.0874359
0.0853046
0.080446
0.0734395
0.0649311
0.0555022
0.0455872
0.0354534
0.0252336
0.0150638
0.00496464
)
;
    }
    rightWall
    {
        type            fixedFluxPressure;
        gradient        uniform 0;
        value           nonuniform List<scalar> 
50
(
247.573
251.314
295.168
292.493
295.015
367.01
424.312
377.576
40.4887
137.229
310.513
333.693
348.43
362.367
427.185
448.531
468.999
490.04
513.439
328.665
17.1664
16.0675
22.6539
359.328
777.05
809.125
833.665
858.627
884.291
910.053
936.096
962.335
988.425
1016.65
577.74
19.4367
3.91501
2.44093
1.94893
1.57639
1.23244
0.917734
0.536419
0.134589
-0.308648
-0.792116
-1.34108
-1.86703
16.2657
10.812
)
;
    }
    lowerWall
    {
        type            fixedFluxPressure;
        gradient        uniform 0;
        value           nonuniform List<scalar> 
62
(
1528.14
1528.07
1527.58
1526.54
1525.16
1523.6
1521.89
1520.04
1518.06
1515.96
1513.76
1511.47
1509.15
1506.81
1504.5
1502.28
1500.2
1498.35
1496.9
1495.9
1495.68
1496.59
1495.83
1495.83
1484.32
1441.07
1425.69
1450.13
1476.51
1457.87
1142.99
141.018
180.345
183.101
182.047
217.422
235.197
278.846
324.539
261.565
115.958
30.5853
1.5939
217.422
189.83
129.775
86.3332
104.014
113.679
97.0098
92.6167
98.1673
108.053
132.745
190.758
203.198
204.705
190.633
186.432
213.513
243.921
247.573
)
;
    }
    atmosphere
    {
        type            totalPressure;
        rho             rho;
        psi             none;
        gamma           1;
        p0              uniform 0;
        value           nonuniform List<scalar> 
46
(
0
0
0
0
0
0
0
0
0
0
0
0
0
0
0
0
0
0
0
0
0
0
0
0
-2.86927e-05
-0.000275463
-0.000839577
-0.00209613
-0.00484113
-0.00943286
-0.0166013
-0.0273439
-0.0430255
-0.0654477
-0.0969187
-0.140071
-0.198871
-0.27445
-0.376021
-0.484717
-0.611163
-0.662382
-0.366026
0
0
0
)
;
    }
    defaultFaces
    {
        type            empty;
    }
}


// ************************************************************************* //
