/*--------------------------------*- C++ -*----------------------------------*\
| =========                 |                                                 |
| \\      /  F ield         | OpenFOAM: The Open Source CFD Toolbox           |
|  \\    /   O peration     | Version:  2206                                  |
|   \\  /    A nd           | Website:  www.openfoam.com                      |
|    \\/     M anipulation  |                                                 |
\*---------------------------------------------------------------------------*/
FoamFile
{
    version     2.0;
    format      ascii;
    arch        "LSB;label=32;scalar=64";
    class       volVectorField;
    location    "0.475";
    object      U;
}
// * * * * * * * * * * * * * * * * * * * * * * * * * * * * * * * * * * * * * //

dimensions      [0 1 -1 0 0 0 0];

internalField   nonuniform List<vector> 
2268
(
(-0.0345392 0.0105709 0)
(-0.0607944 0.00339505 0)
(-0.0466885 -0.00728222 0)
(0.000942415 -0.0134217 0)
(0.0656125 -0.016152 0)
(0.133308 -0.0155599 0)
(0.194791 -0.0128708 0)
(0.243396 -0.00949968 0)
(0.277449 -0.00636117 0)
(0.298903 -0.0037976 0)
(0.310737 -0.00180745 0)
(0.315369 -0.000160515 0)
(0.313656 0.00165539 0)
(0.304669 0.00409166 0)
(0.286496 0.00776186 0)
(0.255176 0.0133646 0)
(0.20386 0.0210376 0)
(0.12755 0.0279074 0)
(0.0194165 0.0212375 0)
(-0.0402895 0.010801 0)
(-0.159504 0.0269544 0)
(-0.231856 0.0049531 0)
(-0.0770706 -0.0570936 0)
(-0.0431464 0.0316765 0)
(-0.0575549 0.00704992 0)
(-0.0423811 -0.0225675 0)
(0.00630229 -0.0406934 0)
(0.070748 -0.0486392 0)
(0.137714 -0.0467936 0)
(0.198076 -0.0387477 0)
(0.245486 -0.0287102 0)
(0.278669 -0.019419 0)
(0.299823 -0.0118785 0)
(0.311983 -0.00606246 0)
(0.317573 -0.0014492 0)
(0.318726 0.00272848 0)
(0.317522 0.00740023 0)
(0.314851 0.0137382 0)
(0.3106 0.0234647 0)
(0.300619 0.0382501 0)
(0.274236 0.0580849 0)
(0.196283 0.0684507 0)
(0.0914235 0.0677079 0)
(-0.107287 0.0603138 0)
(-0.149293 -0.0124443 0)
(-0.0135816 -0.128241 0)
(-0.038836 0.052161 0)
(-0.0497354 0.00880267 0)
(-0.0331941 -0.0383254 0)
(0.0147755 -0.0674849 0)
(0.0772918 -0.0803107 0)
(0.142234 -0.0770615 0)
(0.200165 -0.0635408 0)
(0.244904 -0.0468777 0)
(0.275844 -0.0316663 0)
(0.295694 -0.0194877 0)
(0.307575 -0.0102054 0)
(0.313696 -0.00306944 0)
(0.315332 0.00274886 0)
(0.313135 0.00834325 0)
(0.307542 0.015067 0)
(0.299721 0.0250362 0)
(0.292368 0.0413641 0)
(0.291055 0.0685857 0)
(0.277441 0.0999334 0)
(0.228821 0.125856 0)
(0.0918271 0.119491 0)
(-0.0190614 -0.00223947 0)
(0.0477597 -0.146962 0)
(-0.0325758 0.0695103 0)
(-0.038225 0.00941631 0)
(-0.0198814 -0.0540718 0)
(0.0248215 -0.0927622 0)
(0.0835254 -0.110533 0)
(0.145826 -0.106056 0)
(0.201146 -0.0869448 0)
(0.242909 -0.0636961 0)
(0.27127 -0.0429824 0)
(0.289694 -0.0267675 0)
(0.301472 -0.0145649 0)
(0.308579 -0.00521333 0)
(0.311955 0.00256971 0)
(0.311918 0.0100524 0)
(0.308418 0.0185945 0)
(0.301436 0.0296774 0)
(0.291825 0.0452211 0)
(0.285052 0.0697185 0)
(0.289622 0.106465 0)
(0.296831 0.151631 0)
(0.250854 0.166241 0)
(0.161032 0.0427228 0)
(0.114276 -0.101766 0)
(-0.0255505 0.0820323 0)
(-0.0216136 0.00757767 0)
(-0.00240691 -0.068125 0)
(0.0374046 -0.115677 0)
(0.090495 -0.138888 0)
(0.14868 -0.133727 0)
(0.200572 -0.109021 0)
(0.23909 -0.0791297 0)
(0.264976 -0.0532053 0)
(0.282337 -0.0335431 0)
(0.294494 -0.0190596 0)
(0.303064 -0.00799622 0)
(0.30859 0.00128038 0)
(0.311122 0.0103367 0)
(0.310498 0.0205741 0)
(0.306642 0.0332124 0)
(0.300044 0.0494444 0)
(0.291963 0.0711654 0)
(0.289903 0.101727 0)
(0.308961 0.147522 0)
(0.322968 0.178749 0)
(0.263832 0.0981346 0)
(0.164771 -0.0293031 0)
(-0.0170137 0.0887395 0)
(0.00171454 0.00256473 0)
(0.0228167 -0.0815835 0)
(0.0608715 -0.13718 0)
(0.107486 -0.165236 0)
(0.157104 -0.159424 0)
(0.201593 -0.129475 0)
(0.234742 -0.0936426 0)
(0.257522 -0.0632459 0)
(0.274105 -0.0406665 0)
(0.287323 -0.0242151 0)
(0.298061 -0.0116169 0)
(0.306304 -0.000974868 0)
(0.311703 0.00934653 0)
(0.313832 0.0209783 0)
(0.312647 0.0349913 0)
(0.309026 0.0522439 0)
(0.304237 0.0736767 0)
(0.29939 0.0990535 0)
(0.305724 0.134846 0)
(0.334472 0.17316 0)
(0.303554 0.143662 0)
(0.192699 0.0753439 0)
(-0.00578585 0.0870922 0)
(0.0313788 -0.0109443 0)
(0.0637954 -0.0975401 0)
(0.107983 -0.15653 0)
(0.146809 -0.186747 0)
(0.179948 -0.179567 0)
(0.210152 -0.145068 0)
(0.234243 -0.104993 0)
(0.252241 -0.0722762 0)
(0.267271 -0.0485806 0)
(0.281184 -0.0312174 0)
(0.293969 -0.0173957 0)
(0.304976 -0.00506023 0)
(0.31357 0.00721216 0)
(0.318833 0.020494 0)
(0.320296 0.0354879 0)
(0.318838 0.0531182 0)
(0.31629 0.0747739 0)
(0.313822 0.0994908 0)
(0.310921 0.128181 0)
(0.328694 0.167959 0)
(0.315923 0.181392 0)
(0.224005 0.181758 0)
(0.0072673 0.0759726 0)
(0.0642032 -0.0268465 0)
(0.126904 -0.114256 0)
(0.183215 -0.171891 0)
(0.20812 -0.199777 0)
(0.215704 -0.190517 0)
(0.22656 -0.153242 0)
(0.240577 -0.110384 0)
(0.254231 -0.0763944 0)
(0.267835 -0.0528818 0)
(0.281648 -0.0362282 0)
(0.294909 -0.0230178 0)
(0.306751 -0.010876 0)
(0.316609 0.00287991 0)
(0.323846 0.0191057 0)
(0.327869 0.0369296 0)
(0.329275 0.0556253 0)
(0.328939 0.0765199 0)
(0.329047 0.100362 0)
(0.326658 0.125871 0)
(0.330931 0.165279 0)
(0.330328 0.214825 0)
(0.219137 0.329834 0)
(0.400534 -0.148826 0)
(1.22737 -0.382502 0)
(2.1763 -0.313651 0)
(3.09153 0.0497125 0)
(2.72783 0.335866 0)
(1.28781 0.292572 0)
(0.322493 0.0637916 0)
(0.215844 -0.00435128 0)
(0.113958 0.0311973 0)
(-0.107672 0.0515094 0)
(-0.389925 0.0567184 0)
(-0.673146 0.054234 0)
(-0.901912 0.107047 0)
(-2.03044 0.370825 0)
(-4.82252 0.604398 0)
(-6.84038 0.28561 0)
(-6.10989 -0.45457 0)
(-3.19797 -1.0247 0)
(-1.05658 -0.738206 0)
(0.438372 -0.438438 0)
(0.800328 -0.656377 0)
(1.04078 -0.558086 0)
(1.63237 -0.213885 0)
(2.45873 0.326976 0)
(2.07481 0.602834 0)
(1.09467 0.381293 0)
(0.510535 0.147174 0)
(0.207495 0.135022 0)
(-0.105246 0.176968 0)
(-0.498356 0.218523 0)
(-1.02359 0.315254 0)
(-1.87735 0.603482 0)
(-3.707 1.08077 0)
(-5.89508 1.19603 0)
(-5.87447 0.371268 0)
(-3.54677 -0.98851 0)
(-1.73694 -1.87483 0)
(-0.567091 -1.32499 0)
(0.332002 -0.684609 0)
(0.530269 -0.814287 0)
(0.675515 -0.676104 0)
(0.965224 -0.361638 0)
(1.71626 0.2837 0)
(1.8571 0.773631 0)
(1.20166 0.650338 0)
(0.583949 0.369365 0)
(0.215899 0.283513 0)
(-0.0912542 0.320519 0)
(-0.456113 0.413635 0)
(-0.963443 0.644488 0)
(-1.73032 1.11775 0)
(-3.15784 1.5916 0)
(-4.51652 1.3035 0)
(-3.25132 -0.287851 0)
(-1.7532 -1.67052 0)
(-1.00201 -2.40579 0)
(-0.264249 -1.68809 0)
(0.209167 -0.863104 0)
(0.23822 -0.900242 0)
(0.487629 -0.664446 0)
(0.557146 -0.507627 0)
(1.01393 0.123348 0)
(1.26661 0.783522 0)
(0.91924 0.833741 0)
(0.49137 0.565547 0)
(0.193774 0.427276 0)
(-0.0649161 0.452512 0)
(-0.359282 0.585027 0)
(-0.739527 0.913469 0)
(-1.20292 1.52085 0)
(-2.06154 1.98734 0)
(-3.13697 1.44565 0)
(-2.20119 -0.229143 0)
(-1.15093 -1.89547 0)
(-0.695063 -2.68625 0)
(-0.00336496 -1.89792 0)
(0.0648206 -0.861502 0)
(-0.343843 -0.738026 0)
(0.414259 -0.720998 0)
(0.25291 -0.662799 0)
(0.557643 0.0867053 0)
(0.699153 0.773868 0)
(0.547607 0.929972 0)
(0.349249 0.694992 0)
(0.167983 0.537797 0)
(-0.0286159 0.558539 0)
(-0.247482 0.711466 0)
(-0.491415 1.07871 0)
(-0.667512 1.7432 0)
(-1.02815 2.1863 0)
(-1.72103 1.356 0)
(-1.26403 -0.587328 0)
(-0.799099 -2.02064 0)
(-0.539965 -2.86784 0)
(0.232629 -2.05929 0)
(0.0330955 -0.719443 0)
(-0.840302 -0.860819 0)
(-0.0997077 -0.886515 0)
(-0.206324 -0.703456 0)
(0.156137 0.0455831 0)
(0.233475 0.752193 0)
(0.239377 0.948299 0)
(0.231235 0.750677 0)
(0.150618 0.608349 0)
(0.0122667 0.636106 0)
(-0.137894 0.795688 0)
(-0.269472 1.15254 0)
(-0.240914 1.79977 0)
(-0.185715 2.24147 0)
(-0.502567 1.36518 0)
(-0.597217 -0.4397 0)
(-0.533185 -2.37465 0)
(-0.315669 -3.08892 0)
(0.333287 -2.15194 0)
(0.0543764 -0.557007 0)
(-0.708131 -0.887735 0)
(-0.434377 -0.94377 0)
(-0.442197 -0.751157 0)
(-0.169525 -0.0205058 0)
(-0.0947139 0.706722 0)
(0.0463906 0.90296 0)
(0.159733 0.750602 0)
(0.143998 0.648767 0)
(0.0551614 0.689892 0)
(-0.0364614 0.845701 0)
(-0.0836034 1.16174 0)
(0.059372 1.72924 0)
(0.399389 2.17179 0)
(0.386491 1.4159 0)
(0.116899 -0.298983 0)
(0.571169 -2.31956 0)
(-0.164416 -3.14461 0)
(0.371716 -2.1885 0)
(0.135415 -0.443924 0)
(-0.345924 -0.790282 0)
(-0.413865 -0.980714 0)
(-0.489141 -0.78418 0)
(-0.367013 -0.0310524 0)
(-0.266846 0.629912 0)
(-0.0384107 0.814895 0)
(0.127171 0.719757 0)
(0.14651 0.66452 0)
(0.0944078 0.720039 0)
(0.0503522 0.86962 0)
(0.0657021 1.13665 0)
(0.265472 1.59733 0)
(0.755951 2.01316 0)
(0.971211 1.42922 0)
(0.766266 -0.21849 0)
(1.24066 -2.1476 0)
(-0.224916 -2.7383 0)
(0.385777 -2.17534 0)
(0.0266234 0.0322706 0)
(0.130336 -0.0746478 0)
(0.244706 -0.161092 0)
(0.306309 -0.198914 0)
(0.289728 -0.204356 0)
(0.25282 -0.190685 0)
(0.238935 -0.159239 0)
(0.244993 -0.120748 0)
(0.259818 -0.0871112 0)
(0.278445 -0.0617882 0)
(0.297436 -0.0425398 0)
(0.313913 -0.0268897 0)
(0.326736 -0.0139945 0)
(0.335103 -0.00341041 0)
(0.339408 0.00791503 0)
(0.340985 0.0239225 0)
(0.342209 0.0452326 0)
(0.344415 0.0711958 0)
(0.347787 0.0994323 0)
(0.355128 0.126971 0)
(0.365213 0.16296 0)
(0.417809 0.207644 0)
(0.470481 0.364678 0)
(0.0495119 -0.0736452 0)
(0.224478 -0.220896 0)
(0.368118 -0.273344 0)
(0.378224 -0.227871 0)
(0.29856 -0.180369 0)
(0.225401 -0.166824 0)
(0.197463 -0.160529 0)
(0.200658 -0.146247 0)
(0.223457 -0.126828 0)
(0.25767 -0.106482 0)
(0.295163 -0.0852879 0)
(0.329068 -0.0617472 0)
(0.354404 -0.0343691 0)
(0.368087 -0.00414253 0)
(0.371484 0.0255791 0)
(0.371322 0.0492459 0)
(0.370264 0.0631185 0)
(0.369801 0.0772373 0)
(0.371529 0.0900798 0)
(0.383 0.104967 0)
(0.404405 0.128659 0)
(0.448274 0.148994 0)
(0.520677 0.186182 0)
(0.083854 -0.219779 0)
(0.241889 -0.438607 0)
(0.299551 -0.326228 0)
(-0.0260796 -0.0361917 0)
(-0.0219548 -0.0525344 0)
(-0.00506901 -0.0898554 0)
(-0.0227912 -0.115388 0)
(-0.036801 -0.133777 0)
(-0.0158558 -0.140083 0)
(0.03024 -0.133595 0)
(0.0890811 -0.116814 0)
(0.153309 -0.0925347 0)
(0.219347 -0.0650629 0)
(0.28213 -0.0363364 0)
(0.338528 -0.00946101 0)
(0.387532 0.0114196 0)
(0.409278 0.0345445 0)
(0.400954 0.071838 0)
(0.381965 0.0952182 0)
(0.37998 0.0982132 0)
(0.398964 0.102671 0)
(0.427678 0.100502 0)
(0.470751 0.0875274 0)
(0.0357062 -0.458307 0)
(-0.0470273 -0.503357 0)
(-0.118627 0.0915574 0)
(-0.0718175 0.0936879 0)
(-0.0681828 -0.199748 0)
(-0.0950143 -0.131411 0)
(-0.1264 -0.0977415 0)
(-0.156408 -0.117508 0)
(-0.204263 -0.147499 0)
(-0.25537 -0.155901 0)
(-0.30847 -0.142968 0)
(-0.382058 -0.119969 0)
(-0.458164 -0.0984592 0)
(-0.485859 -0.0972116 0)
(-0.432403 -0.109734 0)
(0.0630178 -0.0113868 0)
(0.236232 0.0450278 0)
(0.311819 0.093751 0)
(0.360822 0.102983 0)
(0.406642 0.0925574 0)
(0.43141 0.0915197 0)
(0.44335 0.076033 0)
(0.461626 0.0519177 0)
(-0.0881444 -0.27344 0)
(-0.188339 -0.231628 0)
(-0.200068 -0.117966 0)
(-0.106035 -0.0676746 0)
(-0.0539161 -0.112481 0)
(-0.0724787 -0.103713 0)
(-0.0762604 -0.0847955 0)
(-0.081643 -0.0892517 0)
(-0.0947949 -0.0965135 0)
(-0.103507 -0.102061 0)
(-0.100973 -0.0897644 0)
(-0.0891661 -0.0564621 0)
(-0.0810393 -0.0430606 0)
(-0.149176 -0.131372 0)
(-0.343873 -0.338421 0)
(-0.504127 -0.480877 0)
(-0.510115 -0.157244 0)
(-0.286438 -0.0197468 0)
(0.0843061 0.00771019 0)
(0.257671 0.029015 0)
(0.334249 0.0684283 0)
(0.40541 0.0787937 0)
(0.464089 0.0724746 0)
(-0.0984241 -0.171576 0)
(-0.101784 -0.298377 0)
(-0.109106 -0.195566 0)
(-0.071887 -0.119973 0)
(-0.0683395 -0.112277 0)
(-0.0747033 -0.100314 0)
(-0.0796469 -0.0895241 0)
(-0.083852 -0.0864651 0)
(-0.091058 -0.094732 0)
(-0.0958308 -0.108012 0)
(-0.0915164 -0.111182 0)
(-0.0704838 -0.081861 0)
(-0.0243528 0.000675659 0)
(-0.0164585 0.107785 0)
(-0.125602 0.0484131 0)
(-0.138296 -0.181337 0)
(-0.0827463 -0.262838 0)
(0.0207587 -0.411863 0)
(-0.0460619 -0.400178 0)
(0.0934945 -0.105745 0)
(-0.258715 -0.0514524 0)
(0.0966514 -0.0855891 0)
(0.281588 -0.0450721 0)
(-0.0513673 -0.10941 0)
(-0.046383 -0.235111 0)
(-0.0791032 -0.157839 0)
(-0.0713218 -0.120575 0)
(-0.0685831 -0.107174 0)
(-0.0662982 -0.0981192 0)
(-0.0674502 -0.0877251 0)
(-0.0690191 -0.0838059 0)
(-0.0734728 -0.0898938 0)
(-0.0802983 -0.104424 0)
(-0.0873332 -0.116523 0)
(-0.0896476 -0.107475 0)
(-0.0741231 -0.0661671 0)
(-0.021293 -0.028767 0)
(0.00734692 -0.0884923 0)
(0.0278182 -0.257527 0)
(0.0241735 -0.289628 0)
(0.0633045 -0.260977 0)
(0.112313 -0.217533 0)
(0.274517 -0.00756104 0)
(0.436908 0.12137 0)
(0.57037 -0.333436 0)
(0.438048 -0.226174 0)
(-0.0304389 -0.0666062 0)
(-0.0401571 -0.217869 0)
(-0.0586598 -0.157957 0)
(-0.0568895 -0.124242 0)
(-0.0559409 -0.109046 0)
(-0.0536064 -0.0991417 0)
(-0.0519 -0.0879897 0)
(-0.0510232 -0.0803252 0)
(-0.053366 -0.0814829 0)
(-0.0597983 -0.0925234 0)
(-0.0685709 -0.106998 0)
(-0.0729753 -0.109388 0)
(-0.0552518 -0.0837774 0)
(-0.00498419 -0.0419448 0)
(0.0557056 -0.0698895 0)
(0.0794958 -0.226636 0)
(0.0507833 -0.295339 0)
(0.0385283 -0.358366 0)
(0.0749764 -0.388769 0)
(0.171225 -0.361496 0)
(0.364081 -0.313643 0)
(0.530688 -0.201148 0)
(0.605612 0.097048 0)
(-0.0181552 -0.0387362 0)
(-0.0311113 -0.205462 0)
(-0.0430627 -0.155 0)
(-0.0441546 -0.122467 0)
(-0.0450725 -0.109661 0)
(-0.0438507 -0.100956 0)
(-0.0413129 -0.0908984 0)
(-0.0376111 -0.0820335 0)
(-0.034833 -0.0797172 0)
(-0.0349975 -0.0870827 0)
(-0.0381989 -0.101457 0)
(-0.0408779 -0.114543 0)
(-0.0316231 -0.118386 0)
(-0.00078189 -0.119813 0)
(0.0554012 -0.143266 0)
(0.0786987 -0.217458 0)
(0.0644677 -0.271146 0)
(0.0463568 -0.329144 0)
(0.0515433 -0.403841 0)
(0.0981832 -0.42975 0)
(0.179327 -0.407727 0)
(0.25354 -0.351106 0)
(0.374166 -0.102987 0)
(-0.00944744 -0.0179161 0)
(-0.0209169 -0.192123 0)
(-0.0318948 -0.149263 0)
(-0.034766 -0.11989 0)
(-0.0361779 -0.109281 0)
(-0.035684 -0.102468 0)
(-0.0330241 -0.0947311 0)
(-0.0277739 -0.0872804 0)
(-0.0211159 -0.084019 0)
(-0.0153583 -0.0884591 0)
(-0.0119682 -0.100267 0)
(-0.00998525 -0.11569 0)
(-0.00422184 -0.130631 0)
(0.00985606 -0.147241 0)
(0.0355432 -0.172013 0)
(0.0507369 -0.221131 0)
(0.0422224 -0.266421 0)
(0.0311195 -0.322675 0)
(0.00715901 -0.405747 0)
(-0.0125964 -0.455742 0)
(-0.000313506 -0.447303 0)
(0.00862213 -0.386267 0)
(0.0685165 -0.182778 0)
(-0.00469959 -0.00537655 0)
(-0.0144516 -0.181858 0)
(-0.0238014 -0.143401 0)
(-0.0274413 -0.116716 0)
(-0.0293439 -0.108365 0)
(-0.0295217 -0.103671 0)
(-0.0275814 -0.0986644 0)
(-0.0228655 -0.0939224 0)
(-0.0157359 -0.0918848 0)
(-0.00798544 -0.0953374 0)
(-0.00163626 -0.10514 0)
(0.00267376 -0.119724 0)
(0.00656387 -0.136806 0)
(0.0112183 -0.157295 0)
(0.0180951 -0.182447 0)
(0.0189616 -0.217153 0)
(0.00650838 -0.253786 0)
(-0.00752928 -0.301146 0)
(-0.0433367 -0.370248 0)
(-0.0925788 -0.426359 0)
(-0.133058 -0.433757 0)
(-0.171432 -0.376314 0)
(-0.184996 -0.213202 0)
(-0.00204946 0.00221127 0)
(-0.0103041 -0.173419 0)
(-0.0181881 -0.137939 0)
(-0.0221304 -0.113315 0)
(-0.0244638 -0.106828 0)
(-0.0253624 -0.103975 0)
(-0.0245949 -0.101263 0)
(-0.0216868 -0.099142 0)
(-0.0166303 -0.0990235 0)
(-0.0104976 -0.102631 0)
(-0.0050925 -0.11099 0)
(-0.00175498 -0.123579 0)
(-0.000624843 -0.139032 0)
(-0.00165016 -0.15755 0)
(-0.00493385 -0.179337 0)
(-0.0139487 -0.206287 0)
(-0.0283601 -0.235786 0)
(-0.0503331 -0.272957 0)
(-0.0896875 -0.32668 0)
(-0.143592 -0.377855 0)
(-0.200973 -0.398366 0)
(-0.246103 -0.35215 0)
(-0.259208 -0.227485 0)
(-0.000687 0.00746136 0)
(-0.00760583 -0.166192 0)
(-0.0144469 -0.132575 0)
(-0.0185683 -0.109807 0)
(-0.0212058 -0.104832 0)
(-0.0227801 -0.103357 0)
(-0.0231683 -0.102197 0)
(-0.0222366 -0.101842 0)
(-0.019985 -0.103168 0)
(-0.016973 -0.107084 0)
(-0.0144374 -0.114264 0)
(-0.0136787 -0.124635 0)
(-0.0153424 -0.137594 0)
(-0.0195847 -0.152969 0)
(-0.0268654 -0.171004 0)
(-0.0384512 -0.192182 0)
(-0.0544669 -0.214733 0)
(-0.0776467 -0.241845 0)
(-0.11582 -0.279641 0)
(-0.172092 -0.320431 0)
(-0.241227 -0.345857 0)
(-0.303766 -0.32367 0)
(-0.326271 -0.23874 0)
(-0.00022398 0.0111876 0)
(-0.00602374 -0.160049 0)
(-0.0120706 -0.127514 0)
(-0.0162606 -0.106171 0)
(-0.0191997 -0.102388 0)
(-0.02137 -0.101908 0)
(-0.0227394 -0.101691 0)
(-0.0233834 -0.102257 0)
(-0.0234429 -0.104266 0)
(-0.0232722 -0.10819 0)
(-0.0236102 -0.114353 0)
(-0.0253496 -0.122827 0)
(-0.0291179 -0.133452 0)
(-0.0352293 -0.146099 0)
(-0.0441839 -0.160838 0)
(-0.0567196 -0.177546 0)
(-0.0731338 -0.195414 0)
(-0.0939544 -0.214739 0)
(-0.12403 -0.236748 0)
(-0.171903 -0.259398 0)
(-0.239953 -0.273609 0)
(-0.313936 -0.262101 0)
(-0.36925 -0.214097 0)
(-0.000235269 0.0142438 0)
(-0.00520144 -0.15469 0)
(-0.0106932 -0.122655 0)
(-0.0149087 -0.102443 0)
(-0.018111 -0.0995465 0)
(-0.020795 -0.0997568 0)
(-0.0229692 -0.100099 0)
(-0.0247615 -0.101069 0)
(-0.0263989 -0.103216 0)
(-0.0281829 -0.106834 0)
(-0.0305797 -0.11208 0)
(-0.0341493 -0.119018 0)
(-0.039404 -0.12762 0)
(-0.0468202 -0.137782 0)
(-0.0569408 -0.149377 0)
(-0.0704131 -0.162171 0)
(-0.0881869 -0.175818 0)
(-0.111428 -0.189582 0)
(-0.141129 -0.201259 0)
(-0.178723 -0.207855 0)
(-0.225708 -0.206876 0)
(-0.278439 -0.194929 0)
(-0.325764 -0.16801 0)
(-0.000362043 0.0169984 0)
(-0.00478728 -0.149831 0)
(-0.00998784 -0.117942 0)
(-0.0142097 -0.0986241 0)
(-0.0176456 -0.096364 0)
(-0.0207582 -0.0970118 0)
(-0.0235975 -0.097668 0)
(-0.026269 -0.0987762 0)
(-0.0289883 -0.100792 0)
(-0.0320358 -0.103932 0)
(-0.035764 -0.108299 0)
(-0.0405747 -0.113899 0)
(-0.0468795 -0.120692 0)
(-0.0551398 -0.12856 0)
(-0.0658318 -0.13727 0)
(-0.0794205 -0.146394 0)
(-0.0966107 -0.15543 0)
(-0.118211 -0.163948 0)
(-0.144898 -0.171278 0)
(-0.176594 -0.175389 0)
(-0.211939 -0.172259 0)
(-0.248064 -0.157721 0)
(-0.280638 -0.131746 0)
(-0.000502142 0.0196982 0)
(-0.00461337 -0.145238 0)
(-0.00971221 -0.113293 0)
(-0.0139299 -0.0947146 0)
(-0.0175667 -0.0928954 0)
(-0.0210299 -0.0937726 0)
(-0.0244052 -0.0945572 0)
(-0.0277705 -0.0956461 0)
(-0.0312983 -0.0974141 0)
(-0.0352312 -0.100013 0)
(-0.0398577 -0.103506 0)
(-0.0455094 -0.107868 0)
(-0.0525265 -0.113032 0)
(-0.0612733 -0.118855 0)
(-0.0721282 -0.125082 0)
(-0.0854361 -0.13135 0)
(-0.101586 -0.137145 0)
(-0.120882 -0.141678 0)
(-0.143584 -0.143948 0)
(-0.169775 -0.142765 0)
(-0.198485 -0.13675 0)
(-0.226943 -0.124585 0)
(-0.251855 -0.106094 0)
(-0.000592057 0.0223945 0)
(-0.0045463 -0.140744 0)
(-0.00968529 -0.108649 0)
(-0.0138933 -0.0907158 0)
(-0.0176953 -0.0891968 0)
(-0.0214307 -0.0901451 0)
(-0.0252138 -0.0909108 0)
(-0.0291041 -0.0918638 0)
(-0.0332383 -0.093314 0)
(-0.0378139 -0.095354 0)
(-0.043062 -0.0980061 0)
(-0.0492531 -0.101234 0)
(-0.0566662 -0.104953 0)
(-0.0655685 -0.10901 0)
(-0.0762421 -0.113152 0)
(-0.0889407 -0.117034 0)
(-0.103904 -0.120206 0)
(-0.121249 -0.122082 0)
(-0.140921 -0.122048 0)
(-0.162627 -0.119268 0)
(-0.185466 -0.112589 0)
(-0.20778 -0.101147 0)
(-0.227876 -0.0856789 0)
(-0.000605755 0.0250721 0)
(-0.00450627 -0.136232 0)
(-0.00977794 -0.103974 0)
(-0.013967 -0.0866404 0)
(-0.0178973 -0.08532 0)
(-0.0218315 -0.0862277 0)
(-0.0259032 -0.0868728 0)
(-0.0301566 -0.0876088 0)
(-0.0347056 -0.0886952 0)
(-0.0397122 -0.0901833 0)
(-0.0453514 -0.092062 0)
(-0.0518315 -0.0942847 0)
(-0.0593717 -0.096753 0)
(-0.0681665 -0.0993216 0)
(-0.0784227 -0.101767 0)
(-0.0903071 -0.103778 0)
(-0.103911 -0.104973 0)
(-0.119233 -0.104855 0)
(-0.136144 -0.102945 0)
(-0.154342 -0.0987702 0)
(-0.17308 -0.0917426 0)
(-0.191136 -0.0814106 0)
(-0.20757 -0.0684419 0)
(-0.000539651 0.0276999 0)
(-0.00444931 -0.131627 0)
(-0.00990174 -0.0992531 0)
(-0.0140553 -0.0825115 0)
(-0.018073 -0.0813171 0)
(-0.0221393 -0.0821096 0)
(-0.0263993 -0.0825718 0)
(-0.0308794 -0.0830483 0)
(-0.0356756 -0.0837556 0)
(-0.0409207 -0.084718 0)
(-0.0467526 -0.0858966 0)
(-0.0533217 -0.0872407 0)
(-0.0607941 -0.0886468 0)
(-0.0693176 -0.0899826 0)
(-0.0790234 -0.0910606 0)
(-0.0900224 -0.0916108 0)
(-0.102343 -0.0913205 0)
(-0.1159 -0.089824 0)
(-0.130528 -0.0867798 0)
(-0.145948 -0.0819353 0)
(-0.161569 -0.0749411 0)
(-0.176493 -0.0655041 0)
(-0.190178 -0.0542894 0)
(-0.00039664 0.0302266 0)
(-0.00435457 -0.126888 0)
(-0.00999199 -0.0944926 0)
(-0.0140861 -0.0783559 0)
(-0.01815 -0.0772403 0)
(-0.0222882 -0.0778722 0)
(-0.0266517 -0.0781209 0)
(-0.03125 -0.0783213 0)
(-0.0361628 -0.078655 0)
(-0.0414939 -0.0791252 0)
(-0.0473545 -0.079681 0)
(-0.0538606 -0.0802627 0)
(-0.0611324 -0.0807766 0)
(-0.0692775 -0.0811002 0)
(-0.0783755 -0.0810765 0)
(-0.0884902 -0.0804995 0)
(-0.0996135 -0.0791109 0)
(-0.111628 -0.0766301 0)
(-0.124365 -0.07283 0)
(-0.137585 -0.067604 0)
(-0.150839 -0.0607802 0)
(-0.163421 -0.0521302 0)
(-0.174987 -0.0422445 0)
(-0.000193426 0.032597 0)
(-0.00421093 -0.122013 0)
(-0.00999245 -0.0897145 0)
(-0.0140004 -0.0742036 0)
(-0.0180753 -0.0731367 0)
(-0.0222313 -0.0735834 0)
(-0.0266243 -0.0736083 0)
(-0.031251 -0.0735347 0)
(-0.0361764 -0.0735147 0)
(-0.0414831 -0.0735352 0)
(-0.0472577 -0.0735438 0)
(-0.0535882 -0.0734755 0)
(-0.0605629 -0.0732444 0)
(-0.0682588 -0.0727421 0)
(-0.0767274 -0.0718406 0)
(-0.0859951 -0.070383 0)
(-0.0960261 -0.0681728 0)
(-0.106706 -0.064998 0)
(-0.117887 -0.060706 0)
(-0.129366 -0.0552888 0)
(-0.140804 -0.0487045 0)
(-0.151641 -0.0407355 0)
(-0.161603 -0.0318879 0)
(3.56375e-05 0.0347582 0)
(-0.00400488 -0.117041 0)
(-0.00985464 -0.0849607 0)
(-0.0137493 -0.0700879 0)
(-0.0178015 -0.0690495 0)
(-0.021926 -0.069301 0)
(-0.0262867 -0.0691048 0)
(-0.0308694 -0.0687718 0)
(-0.0357282 -0.068428 0)
(-0.0409271 -0.0680499 0)
(-0.0465336 -0.0675833 0)
(-0.0526147 -0.0669647 0)
(-0.0592342 -0.0661135 0)
(-0.0664466 -0.0649377 0)
(-0.0742795 -0.063337 0)
(-0.0827453 -0.0611877 0)
(-0.091803 -0.05835 0)
(-0.101337 -0.054676 0)
(-0.111233 -0.0500635 0)
(-0.121336 -0.0445401 0)
(-0.131374 -0.0381847 0)
(-0.140915 -0.0308005 0)
(-0.149702 -0.0227441 0)
(0.000258439 0.0366745 0)
(-0.00371381 -0.112048 0)
(-0.00954516 -0.0802894 0)
(-0.0132966 -0.0660411 0)
(-0.0172927 -0.0650187 0)
(-0.0213386 -0.0650779 0)
(-0.0256137 -0.064672 0)
(-0.0300934 -0.0640993 0)
(-0.0348239 -0.0634644 0)
(-0.0398547 -0.0627367 0)
(-0.0452387 -0.0618639 0)
(-0.0510228 -0.0607816 0)
(-0.0572532 -0.059413 0)
(-0.0639727 -0.0576908 0)
(-0.071192 -0.0555297 0)
(-0.0789096 -0.0528428 0)
(-0.087096 -0.0495232 0)
(-0.0956574 -0.0454681 0)
(-0.104481 -0.0406201 0)
(-0.113473 -0.0350299 0)
(-0.122459 -0.0288385 0)
(-0.131065 -0.0219155 0)
(-0.139021 -0.0144291 0)
(0.000468655 0.0383008 0)
(-0.00331166 -0.107133 0)
(-0.00905806 -0.0757585 0)
(-0.012628 -0.062095 0)
(-0.016534 -0.0610834 0)
(-0.0204528 -0.060961 0)
(-0.0245929 -0.0603608 0)
(-0.0289184 -0.05957 0)
(-0.0334696 -0.0586759 0)
(-0.0382866 -0.0576433 0)
(-0.0434069 -0.056424 0)
(-0.0488586 -0.0549462 0)
(-0.054688 -0.0531549 0)
(-0.0609241 -0.0509976 0)
(-0.0675599 -0.04839 0)
(-0.0745913 -0.0452636 0)
(-0.0819941 -0.0415643 0)
(-0.0897074 -0.0372075 0)
(-0.0976526 -0.0321481 0)
(-0.105753 -0.026485 0)
(-0.113913 -0.0203755 0)
(-0.121863 -0.0137472 0)
(-0.129274 -0.00661454 0)
(0.000699662 0.0395761 0)
(-0.00277498 -0.102384 0)
(-0.00841766 -0.0714096 0)
(-0.01176 -0.0582858 0)
(-0.0155412 -0.0572867 0)
(-0.0192819 -0.0569969 0)
(-0.0232381 -0.0562196 0)
(-0.0273586 -0.0552319 0)
(-0.0316808 -0.0541078 0)
(-0.0362387 -0.0528059 0)
(-0.0410506 -0.0512867 0)
(-0.0461445 -0.0494782 0)
(-0.0515708 -0.047352 0)
(-0.0573262 -0.0448335 0)
(-0.0633859 -0.0418617 0)
(-0.0697811 -0.0383757 0)
(-0.076493 -0.0343638 0)
(-0.0834511 -0.0297491 0)
(-0.0906357 -0.0244891 0)
(-0.0980026 -0.0187036 0)
(-0.105501 -0.012562 0)
(-0.112987 -0.00606189 0)
(-0.120102 0.000923076 0)
(0.00100305 0.0404181 0)
(-0.00209254 -0.0978309 0)
(-0.00767424 -0.0672661 0)
(-0.0107434 -0.0546543 0)
(-0.014361 -0.0536776 0)
(-0.0178734 -0.0532368 0)
(-0.0215981 -0.0523007 0)
(-0.0254616 -0.0511374 0)
(-0.029497 -0.049809 0)
(-0.0337401 -0.0482726 0)
(-0.0381997 -0.046494 0)
(-0.0429059 -0.0444242 0)
(-0.0478893 -0.0420045 0)
(-0.0531325 -0.039182 0)
(-0.0586239 -0.0359061 0)
(-0.0644055 -0.0321472 0)
(-0.0704561 -0.027854 0)
(-0.0766966 -0.0229933 0)
(-0.0831881 -0.017547 0)
(-0.0898926 -0.0115754 0)
(-0.0967828 -0.00527192 0)
(-0.103888 0.00129415 0)
(-0.110785 0.00837229 0)
(0.00142664 0.0406762 0)
(-0.00128985 -0.0934243 0)
(-0.00689446 -0.0633341 0)
(-0.00964345 -0.0512395 0)
(-0.0130672 -0.050306 0)
(-0.0163068 -0.0497323 0)
(-0.0197577 -0.0486589 0)
(-0.0233143 -0.0473439 0)
(-0.0270091 -0.0458382 0)
(-0.0308784 -0.044114 0)
(-0.0349392 -0.0421182 0)
(-0.039185 -0.0398233 0)
(-0.0436573 -0.0371512 0)
(-0.048348 -0.0340884 0)
(-0.0532434 -0.030566 0)
(-0.0583651 -0.0265739 0)
(-0.0637028 -0.0220419 0)
(-0.0692291 -0.016952 0)
(-0.0749805 -0.011295 0)
(-0.0809557 -0.00509775 0)
(-0.0871723 0.0014869 0)
(-0.0937742 0.00834068 0)
(-0.100329 0.0157292 0)
(0.00197677 0.0402014 0)
(-0.000426972 -0.0891011 0)
(-0.00614585 -0.0595775 0)
(-0.00852633 -0.0480678 0)
(-0.0117545 -0.0472072 0)
(-0.0146901 -0.0465172 0)
(-0.0178413 -0.0453351 0)
(-0.0210567 -0.0439015 0)
(-0.024382 -0.0422578 0)
(-0.027833 -0.040382 0)
(-0.0314248 -0.0382141 0)
(-0.0351559 -0.035725 0)
(-0.0390656 -0.0328803 0)
(-0.0431366 -0.0296235 0)
(-0.0473521 -0.0259058 0)
(-0.0517478 -0.0217241 0)
(-0.0562943 -0.0169983 0)
(-0.0609712 -0.0117029 0)
(-0.0658691 -0.00584446 0)
(-0.0709557 0.000626403 0)
(-0.0762041 0.0075519 0)
(-0.0819813 0.0147893 0)
(-0.087797 0.0226739 0)
(0.00268511 0.0389211 0)
(0.000472885 -0.0847651 0)
(-0.00550126 -0.0559268 0)
(-0.00746659 -0.0451392 0)
(-0.0105321 -0.0443792 0)
(-0.0131565 -0.0435876 0)
(-0.0160186 -0.0423298 0)
(-0.0188965 -0.0408156 0)
(-0.0218446 -0.03908 0)
(-0.0248684 -0.0370904 0)
(-0.0279792 -0.0348046 0)
(-0.0311908 -0.0321888 0)
(-0.0345093 -0.0292188 0)
(-0.0379047 -0.0258282 0)
(-0.0414103 -0.0219899 0)
(-0.0450092 -0.0176871 0)
(-0.048655 -0.0128119 0)
(-0.0523961 -0.00741314 0)
(-0.0562306 -0.00139907 0)
(-0.0601683 0.0052694 0)
(-0.0642192 0.0125179 0)
(-0.0686453 0.020168 0)
(-0.0729932 0.0285805 0)
(0.00355268 0.0367762 0)
(0.00137541 -0.0802679 0)
(-0.0050204 -0.0523165 0)
(-0.00653321 -0.0424358 0)
(-0.00951457 -0.0417936 0)
(-0.0118535 -0.0409115 0)
(-0.0144761 -0.0396111 0)
(-0.017065 -0.0380546 0)
(-0.0196877 -0.0362704 0)
(-0.0223383 -0.0342219 0)
(-0.0250267 -0.031876 0)
(-0.0277608 -0.0291968 0)
(-0.0305383 -0.0261518 0)
(-0.033327 -0.022708 0)
(-0.0361508 -0.018828 0)
(-0.0389522 -0.0144758 0)
(-0.0417488 -0.00958067 0)
(-0.0445019 -0.00417091 0)
(-0.0471926 0.00186455 0)
(-0.0498454 0.00853161 0)
(-0.052375 0.0159297 0)
(-0.0551093 0.0238828 0)
(-0.0574119 0.0326468 0)
(0.00458881 0.0336475 0)
(0.00224856 -0.0754815 0)
(-0.00472667 -0.0487217 0)
(-0.00577144 -0.0399656 0)
(-0.00879253 -0.0394407 0)
(-0.0108972 -0.0384714 0)
(-0.0133696 -0.0371596 0)
(-0.0157572 -0.0356012 0)
(-0.0181528 -0.0338061 0)
(-0.0205414 -0.0317424 0)
(-0.0229268 -0.0293841 0)
(-0.0253105 -0.0266934 0)
(-0.0276895 -0.0236452 0)
(-0.0300136 -0.0202146 0)
(-0.0323023 -0.0163754 0)
(-0.0344905 -0.012071 0)
(-0.0365619 -0.00730554 0)
(-0.0384935 -0.00197475 0)
(-0.0401988 0.00389691 0)
(-0.0416223 0.010422 0)
(-0.042695 0.0176255 0)
(-0.0436829 0.025522 0)
(-0.0437335 0.034271 0)
(0.00574499 0.0294142 0)
(0.00302178 -0.0702594 0)
(-0.00459632 -0.0451089 0)
(-0.00518638 -0.0377047 0)
(-0.00838244 -0.0372659 0)
(-0.0103117 -0.0362252 0)
(-0.0127453 -0.0349242 0)
(-0.0150292 -0.0333851 0)
(-0.0173067 -0.0316063 0)
(-0.0195648 -0.0295582 0)
(-0.0217964 -0.0272204 0)
(-0.0239941 -0.0245649 0)
(-0.0261536 -0.0215611 0)
(-0.0282287 -0.0182062 0)
(-0.0302011 -0.0144756 0)
(-0.0320293 -0.0103228 0)
(-0.0336533 -0.00575895 0)
(-0.0350128 -0.000682379 0)
(-0.0360308 0.00489847 0)
(-0.0366358 0.0110548 0)
(-0.036656 0.0177675 0)
(-0.0362761 0.0252005 0)
(-0.0345392 0.0334475 0)
(0.0068471 0.0241942 0)
(0.00358774 -0.0643797 0)
(-0.00456447 -0.0413087 0)
(-0.00472863 -0.0354202 0)
(-0.00820504 -0.0350073 0)
(-0.0100009 -0.0339338 0)
(-0.0124671 -0.0326555 0)
(-0.0147232 -0.0311378 0)
(-0.0169726 -0.0293853 0)
(-0.0191998 -0.0273706 0)
(-0.021398 -0.0250684 0)
(-0.0235404 -0.0224612 0)
(-0.0256339 -0.0195403 0)
(-0.0276264 -0.0162896 0)
(-0.0294898 -0.0127146 0)
(-0.0311863 -0.00877674 0)
(-0.0326205 -0.00447408 0)
(-0.0337269 0.000231948 0)
(-0.0344193 0.00535202 0)
(-0.0346384 0.0109285 0)
(-0.0341382 0.0170071 0)
(-0.0329758 0.0236456 0)
(-0.0301915 0.030923 0)
(0.00771784 0.0184665 0)
(0.00391443 -0.0577566 0)
(-0.00453907 -0.0372028 0)
(-0.00431111 -0.0328647 0)
(-0.00809547 -0.0324158 0)
(-0.00976977 -0.0313461 0)
(-0.012275 -0.030096 0)
(-0.0145211 -0.0286055 0)
(-0.0167741 -0.0268743 0)
(-0.0190005 -0.0248882 0)
(-0.0211928 -0.0226227 0)
(-0.0233421 -0.0200656 0)
(-0.0254289 -0.0172298 0)
(-0.0274174 -0.0140914 0)
(-0.0292703 -0.0106871 0)
(-0.0309414 -0.00697949 0)
(-0.0323536 -0.00298294 0)
(-0.0334081 0.0013064 0)
(-0.0340142 0.00590927 0)
(-0.034084 0.0108171 0)
(-0.0334131 0.0161031 0)
(-0.0320289 0.0217611 0)
(-0.0289129 0.0277901 0)
(0.00826281 0.0122602 0)
(0.00403555 -0.0509145 0)
(-0.00443472 -0.033303 0)
(-0.00386759 -0.0304441 0)
(-0.00786316 -0.029907 0)
(-0.00939419 -0.0288832 0)
(-0.0118929 -0.0276627 0)
(-0.0140866 -0.0262022 0)
(-0.0162927 -0.0244904 0)
(-0.0184754 -0.0225255 0)
(-0.0206242 -0.0202972 0)
(-0.0227343 -0.0178026 0)
(-0.0247805 -0.0150408 0)
(-0.0267304 -0.0120261 0)
(-0.028554 -0.00877414 0)
(-0.0302002 -0.00529728 0)
(-0.0315973 -0.00160826 0)
(-0.0326236 0.00224617 0)
(-0.0332093 0.00637487 0)
(-0.0332772 0.0106254 0)
(-0.0325841 0.0150651 0)
(-0.0311513 0.0196767 0)
(-0.0280973 0.0244203 0)
(0.00836964 0.00525964 0)
(0.00392794 -0.044607 0)
(-0.0041894 -0.030362 0)
(-0.00336963 -0.0288381 0)
(-0.00736406 -0.0281726 0)
(-0.00871743 -0.0272373 0)
(-0.011103 -0.0260465 0)
(-0.0131625 -0.024611 0)
(-0.0152304 -0.0229198 0)
(-0.017275 -0.0209764 0)
(-0.0192897 -0.0187828 0)
(-0.0212647 -0.0163442 0)
(-0.023175 -0.013657 0)
(-0.0249918 -0.0107452 0)
(-0.02669 -0.00762532 0)
(-0.0282342 -0.00431608 0)
(-0.0295768 -0.000834329 0)
(-0.0304839 0.00277493 0)
(-0.0309804 0.00642273 0)
(-0.0310537 0.0100909 0)
(-0.0303597 0.0138288 0)
(-0.0289688 0.0173362 0)
(-0.0260852 0.0208821 0)