/*--------------------------------*- C++ -*----------------------------------*\
| =========                 |                                                 |
| \\      /  F ield         | OpenFOAM: The Open Source CFD Toolbox           |
|  \\    /   O peration     | Version:  2206                                  |
|   \\  /    A nd           | Website:  www.openfoam.com                      |
|    \\/     M anipulation  |                                                 |
\*---------------------------------------------------------------------------*/
FoamFile
{
    version     2.0;
    format      ascii;
    arch        "LSB;label=32;scalar=64";
    class       volScalarField;
    location    "0.875";
    object      p_rgh;
}
// * * * * * * * * * * * * * * * * * * * * * * * * * * * * * * * * * * * * * //

dimensions      [1 -1 -2 0 0 0 0];

internalField   nonuniform List<scalar> 
2268
(
1196.64
1180.07
1150.45
1111.99
1070.67
1028.48
985.639
942.472
900.351
860.824
825.915
797.661
777.993
766.486
761.802
760.031
761.864
767.03
774.228
782.683
790.808
794.598
793.375
1201.27
1183.37
1151.5
1110.86
1068.76
1027.66
985.425
942.106
899.701
859.744
824.406
796.2
776.29
765.328
761.504
759.591
760.972
761.429
767.464
778.709
786.138
790.708
791.265
1205.6
1186.12
1152.12
1109.47
1067.38
1026.97
984.966
941.373
898.377
857.512
821.199
792.353
772.478
761.906
759.825
762.364
760.105
760.659
768.141
780.124
786.072
788.264
788.116
1210.13
1188.85
1152.86
1108
1065.35
1025.97
984.463
940.432
896.485
854.125
816.225
786.463
766.655
756.514
755.243
760.839
767.543
772.047
783.11
789.942
789.089
784.643
784.562
1215.95
1192.46
1154.36
1106.93
1063.63
1025.6
984.461
939.517
894.115
849.523
809.295
778.287
758.561
749.2
749.009
756.524
768.77
782.222
791.792
794.015
787.514
780.081
780.886
1224.71
1197.83
1157.4
1107.5
1063.74
1026.86
985.237
938.784
891.539
843.854
800.332
767.728
748.313
740.145
741.094
750.999
768.308
787.18
800.274
798.785
784.992
773.995
776.841
1237.84
1205.66
1162.74
1110.77
1066.34
1029.63
986.549
938.327
888.941
836.62
788.26
753.811
735.433
729.04
730.869
743.592
767.125
793.274
810.993
804.252
780.39
765.132
771.026
1257.12
1216.56
1170.93
1117.44
1071.63
1033.43
987.713
938.113
886.062
826.154
770.185
733.815
718.195
715.294
720.51
734.264
765.751
801.818
827.356
818.079
778.52
752.94
764.95
687.498
620.931
593.109
610.728
576.507
466.421
415.051
383.97
362.643
366.659
358.963
343.804
359.73
428.764
515.001
563.598
596.966
644.911
678.237
693.93
609.186
570.172
594.245
558.482
447.403
404.872
366.092
337.448
350.094
360.912
333.884
350.839
417.923
511.9
554.372
588.835
633.354
667.798
691.917
588.809
533.194
565.122
562.755
462.717
390.742
305.413
273.967
320.545
366.398
334.639
351.003
418.587
487.886
537.248
570.254
628.459
632.845
682.418
570.238
505.46
559.006
584.299
485.383
338.022
237.098
231.588
270.463
361.306
330.479
341.871
406.013
495.679
550.548
587.985
610.707
572.432
675.045
535.381
496.248
599.116
609.989
472.324
258.102
222.218
215.111
224.479
330.94
340.576
349.419
408.64
507.229
593.925
620.268
555.381
565.519
678.416
506.489
497.377
553.991
630.817
432.573
213.63
214.888
201.66
172.933
243.891
363.115
381.677
422.56
512.496
588.999
581.182
594.54
614.373
685.82
564.407
563.18
564.123
646.815
390.803
207.687
209.68
195.352
163.032
130.601
264.519
430.875
464.234
459.987
531.554
613.303
672.712
676.623
716.03
636.095
622.013
572.731
653.927
343.078
202.155
205.671
200.069
176.394
132.303
205.214
438.045
460.987
494.637
550.667
627.192
666.851
665.693
1292.85
1241.7
1188.56
1136
1088.34
1040.68
988.242
938.443
883.325
796.045
688.963
632.135
620.317
626.073
640.347
681.892
749.883
816.899
866.041
834.959
704.412
655.789
748.741
1340.51
1282.75
1184.41
1104.23
1002.28
982.18
967.229
917.503
808.712
420.271
223.269
174.734
165.633
164.262
170.319
245.963
475.262
678.061
682.42
487.581
284.096
181.498
358.124
1387.71
1107.63
1018.3
1069.5
1033.25
949.717
756.434
268.169
201.624
185.588
134.842
91.6188
87.3333
84.9724
80.6439
89.9144
173.283
253.581
303.139
279.295
131.753
97.1482
120.324
1712.47
1174.14
1081.95
951.195
727.284
287.042
129.324
94.1318
156.894
177.545
174.182
176.046
99.0533
81.7784
82.423
81.7852
87.8111
125.018
207.892
230.156
125.374
103.242
340.184
1680.98
755.544
428.752
152.69
50.4253
2.08582
0.275916
0.859918
46.9806
111.435
141.877
154.04
180.183
197.182
190.637
96.0864
160.996
308.007
300.906
265.198
189.136
171.388
710.017
951.164
86.1577
23.9235
5.38925
0.659011
-0.887569
-1.45244
-1.54569
-1.61868
-1.83694
-2.25247
-1.925
54.7237
178.519
188.777
194.895
192.648
168.234
259.797
278.06
246.319
20.4212
31.6202
489.759
12.6352
5.42433
1.34414
-0.456267
-1.36481
-1.80452
-2.01471
-2.16089
-2.23659
-2.24821
-2.14502
-2.09184
-2.13524
0.232266
7.50073
0.184458
2.40249
16.1684
240.638
204.33
6.90307
7.08544
71.1663
1.68301
0.600596
-0.679834
-1.46452
-1.99017
-2.33272
-2.52222
-2.6177
-2.61921
-2.529
-2.38237
-2.24897
-2.09987
-1.88806
-1.5538
-1.11217
-0.64786
2.51441
123.747
215.191
4.98475
5.94661
0.359531
-0.620136
-1.07011
-1.80285
-2.29337
-2.60158
-2.77624
-2.8662
-2.90203
-2.8356
-2.70111
-2.53981
-2.38235
-2.23103
-2.07533
-1.89584
-1.6764
-1.38707
0.175403
83.971
163.843
14.0505
7.27888
-1.69611
-2.2457
-2.29337
-2.75194
-3.00413
-3.13898
-3.15878
-3.12116
-3.0376
-2.91331
-2.76092
-2.59221
-2.4316
-2.2953
-2.19301
-2.11144
-2.01988
-1.9065
-1.7286
9.0454
67.8539
87.4276
9.46376
-2.41991
-4.00194
-3.60576
-3.84933
-3.84587
-3.79035
-3.62845
-3.42413
-3.217
-3.00949
-2.80674
-2.61549
-2.44535
-2.30783
-2.20577
-2.11171
-2.04747
-1.96558
-1.91686
-1.85416
35.6422
98.5824
94.953
-2.33557
-5.3302
-4.93697
-5.09728
-4.94395
-4.70677
-4.319
-3.89179
-3.48047
-3.1301
-2.84437
-2.61206
-2.42571
-2.28345
-2.18938
-2.01957
-1.84191
-1.7443
-1.68142
-1.49101
-1.36747
-0.870899
-0.611536
-1.74557
-5.30706
-6.27427
-6.44798
-6.26401
-5.85572
-5.20641
-4.49276
-3.81111
-3.26595
-2.86634
-2.57958
-2.37082
-2.22005
-2.1175
-2.04956
-1.77507
-1.50231
-1.55531
-1.48216
-1.37874
-1.26773
-0.974498
-0.412254
-3.3283
-7.25414
-7.71213
-7.63567
-7.11333
-6.20946
-5.11026
-4.10877
-3.35226
-2.84072
-2.50736
-2.27941
-2.122
-2.01389
-1.94064
-1.88942
-1.37095
-0.998484
-1.09416
-1.31329
-1.04652
0.370658
-0.819706
-1.74958
-6.13469
-8.3223
-8.47887
-7.99285
-6.84851
-5.4274
-4.19438
-3.30137
-2.7287
-2.37447
-2.14628
-1.99251
-1.88671
-1.81359
-1.76284
-1.71915
-1.10016
-0.429745
-0.390821
-0.10636
0.491637
-1.27651
-0.836575
-3.8435
-6.40901
-7.9856
-7.76058
-6.68644
-5.25412
-3.96426
-3.05111
-2.49517
-2.17031
-1.9688
-1.83398
-1.73961
-1.67171
-1.62218
-1.58455
-1.55188
-1.36865
0.283762
0.659962
0.789125
-1.7994
-1.25544
-1.97448
-3.67488
-4.825
-5.50864
-5.27421
-4.26099
-3.2725
-2.56628
-2.14333
-1.90179
-1.75294
-1.65129
-1.57697
-1.51996
-1.47449
-1.43643
-1.40443
-1.36978
-1.32603
-0.72276
1.01871
-2.04112
-2.13719
-1.26998
-1.29321
-1.927
-2.29689
-2.96588
-2.80795
-2.3272
-1.95567
-1.72899
-1.5988
-1.51546
-1.45409
-1.40476
-1.36241
-1.32348
-1.28544
-1.24623
-1.2061
-1.15825
-1.08796
-0.92692
-1.82428
-1.89885
-1.52397
-0.450293
0.134965
-0.398108
-1.28112
-1.51964
-1.46379
-1.38307
-1.33035
-1.30046
-1.27763
-1.2548
-1.23055
-1.2041
-1.17465
-1.14109
-1.10188
-1.05589
-0.999326
-0.923202
-0.835036
-1.36417
-1.42085
-1.14773
-0.487344
0.0203791
-0.0974763
-0.40276
-0.688828
-0.851005
-0.938408
-0.995908
-1.03459
-1.05658
-1.0646
-1.06194
-1.05016
-1.03069
-1.00357
-0.968202
-0.923503
-0.868004
-0.7995
-0.717399
-0.911253
-0.919272
-0.672144
-0.194485
0.150266
0.165135
-0.0385868
-0.278718
-0.479963
-0.62934
-0.737178
-0.812643
-0.862166
-0.891224
-0.904379
-0.905306
-0.895279
-0.875306
-0.845688
-0.806281
-0.756886
-0.697252
-0.627982
-0.540886
-0.505825
-0.314939
-0.00168492
0.213009
0.229792
0.0935609
-0.0962753
-0.277695
-0.429161
-0.547604
-0.635908
-0.698447
-0.739729
-0.763746
-0.773657
-0.771427
-0.758331
-0.735187
-0.702522
-0.660892
-0.610986
-0.554107
-0.30498
-0.259322
-0.130676
0.0777628
0.195994
0.201538
0.110113
-0.0273102
-0.171575
-0.30264
-0.412468
-0.499405
-0.564791
-0.611112
-0.641048
-0.656978
-0.66072
-0.653596
-0.636683
-0.610833
-0.576976
-0.536167
-0.48983
-0.166872
-0.132401
-0.0438659
0.0753728
0.148121
0.149685
0.0892664
-0.00710311
-0.116206
-0.222358
-0.316708
-0.395406
-0.457625
-0.504102
-0.536233
-0.555551
-0.563445
-0.561082
-0.549631
-0.530022
-0.503265
-0.470493
-0.433077
-0.084974
-0.0628167
-0.0063116
0.0627723
0.104964
0.103851
0.0629818
-0.00505575
-0.086597
-0.170275
-0.24831
-0.316322
-0.372389
-0.416105
-0.447895
-0.46857
-0.479068
-0.480339
-0.473203
-0.458962
-0.438323
-0.412362
-0.382312
-0.0351678
-0.019274
0.0148702
0.053018
0.0747898
0.0707401
0.0411303
-0.00834801
-0.0697323
-0.135177
-0.198535
-0.255776
-0.30464
-0.344124
-0.37403
-0.394638
-0.406482
-0.410189
-0.406264
-0.396608
-0.38104
-0.360697
-0.336653
-0.0049601
0.00727397
0.0266927
0.0458339
0.0548544
0.0483337
0.0252397
-0.0120877
-0.0590324
-0.110323
-0.161382
-0.208853
-0.250567
-0.285299
-0.312515
-0.332153
-0.344465
-0.349933
-0.349311
-0.342247
-0.330559
-0.314748
-0.295601
0.0128628
0.0218925
0.0319643
0.0400456
0.041574
0.0334852
0.0144575
-0.0146954
-0.0512678
-0.0917573
-0.13286
-0.171938
-0.207099
-0.237123
-0.26133
-0.279457
-0.291545
-0.297845
-0.29874
-0.29447
-0.286029
-0.273882
-0.258709
0.0224793
0.0289179
0.0333514
0.0351452
0.0325043
0.0236981
0.00749503
-0.015922
-0.0449243
-0.0771843
-0.110357
-0.14243
-0.171844
-0.197492
-0.218674
-0.235028
-0.246457
-0.253064
-0.255092
-0.25287
-0.246818
-0.237569
-0.22561
0.0268546
0.031343
0.0324527
0.03082
0.0260747
0.0172071
0.00319578
-0.015993
-0.0393386
-0.0652798
-0.092159
-0.118469
-0.142963
-0.164694
-0.183006
-0.197507
-0.208028
-0.214573
-0.217285
-0.21641
-0.212246
-0.205297
-0.195932
0.0279847
0.0310222
0.0302497
0.0269131
0.021315
0.0128356
0.000674957
-0.0152433
-0.034246
-0.0552681
-0.0771342
-0.0987233
-0.119059
-0.137357
-0.153038
-0.165722
-0.175207
-0.18144
-0.184494
-0.184534
-0.181785
-0.176622
-0.169332
0.0271583
0.0291258
0.027378
0.0233549
0.0176401
0.009828
-0.000691661
-0.0139744
-0.0295502
-0.0466773
-0.0645147
-0.0822303
-0.0990682
-0.114393
-0.12771
-0.138675
-0.14708
-0.152843
-0.155989
-0.15663
-0.154949
-0.151125
-0.145474
0.0252078
0.0263963
0.0242371
0.020113
0.0146999
0.00770837
-0.0013239
-0.0124141
-0.0252163
-0.0392026
-0.0537649
-0.0682842
-0.0821787
-0.0949405
-0.106159
-0.115532
-0.122865
-0.128063
-0.131119
-0.132099
-0.131128
-0.128353
-0.123995
0.022664
0.0233029
0.0210726
0.0171705
0.0122833
0.0061772
-0.00149744
-0.01072
-0.0212267
-0.0326348
-0.0444996
-0.056359
-0.0677665
-0.0783199
-0.087684
-0.0956025
-0.101901
-0.106482
-0.10932
-0.110451
-0.109955
-0.107944
-0.104589
0.019857
0.020138
0.0180275
0.0145124
0.0102559
0.00504111
-0.00139308
-0.00899709
-0.0175677
-0.0268232
-0.0364356
-0.0460588
-0.0553504
-0.0639948
-0.0717225
-0.0783209
-0.0836384
-0.0875832
-0.0901198
-0.0912616
-0.0910643
-0.0896172
-0.0870392
0.0169834
0.0170698
0.015172
0.0121165
0.00852333
0.00416998
-0.00113094
-0.00731444
-0.014226
-0.0216564
-0.0293624
-0.0370849
-0.0445621
-0.0515487
-0.0578315
-0.0632373
-0.0676382
-0.0709515
-0.073139
-0.0742027
-0.0741815
-0.0731425
-0.0711795
0.0141512
0.0141766
0.0125262
0.00995203
0.0070129
0.00347324
-0.000792354
-0.00571801
-0.0111899
-0.0170518
-0.0231242
-0.0292142
-0.0351233
-0.0406639
-0.0456696
-0.0500027
-0.0535578
-0.0562647
-0.058088
-0.0590256
-0.059106
-0.0583771
-0.0568836
0.0114058
0.0114694
0.0100737
0.00797875
0.00566392
0.00288295
-0.000437333
-0.00424273
-0.00845284
-0.0129513
-0.0176088
-0.0222835
-0.0268277
-0.0311009
-0.0349766
-0.0383478
-0.0411315
-0.0432712
-0.0447379
-0.0455302
-0.0456742
-0.0452217
-0.0442683
0.00876531
0.00893218
0.00778224
0.0061541
0.00442602
0.00234791
-0.000110019
-0.00291386
-0.00600889
-0.00931081
-0.0127303
-0.0161663
-0.0195127
-0.0226681
-0.02554
-0.028049
-0.0301329
-0.0317493
-0.0328762
-0.0335131
-0.0336808
-0.0334173
-0.0327776
0.00617781
0.00647137
0.00557954
0.00441443
0.00323359
0.00180346
0.000132143
-0.00177211
-0.00387207
-0.00611121
-0.0084331
-0.0107698
-0.0130507
-0.0152079
-0.0171781
-0.018907
-0.0203516
-0.0214823
-0.0222837
-0.0227554
-0.0229124
-0.0227834
-0.0224137
0.00375852
0.00413245
0.00345951
0.00274288
0.00207471
0.00124742
0.000293051
-0.000800167
-0.00200544
-0.00329193
-0.0046295
-0.00597862
-0.00729957
-0.0085531
-0.00970236
-0.0107155
-0.0115669
-0.0122386
-0.0127208
-0.0130127
-0.0131229
-0.0130713
-0.0128988
0.000811017
0.00124912
0.00108912
0.000871002
0.000656559
0.000391141
0.000111681
-0.000216976
-0.000576418
-0.000961818
-0.00136546
-0.00177509
-0.00217942
-0.00256615
-0.00292364
-0.00324168
-0.00351167
-0.00372706
-0.00388369
-0.00398066
-0.00402006
-0.00400831
-0.00395548
769.673
781.288
786.819
786.013
622.978
752.508
812.757
803.091
259.424
575.245
759.879
813.701
872.094
895.688
898.987
880.646
935.355
803.736
731.711
870.142
18.3143
19.0038
135.981
634.244
7.91283
9.83716
14.6729
47.7008
7.07911
8.58707
11.6582
19.6855
7.62503
9.50991
20.3481
29.0712
9.9508
24.2072
206.505
303.354
34.9732
62.8999
447.923
604.438
-0.0381418
0.218026
0.433136
56.6096
-0.672047
-0.527129
-0.383089
-0.187052
0.697076
0.242233
0.558159
0.122056
1.08537
1.24327
1.39748
1.56425
0.874076
0.417904
0.767529
1.44771
1.02853
-0.0698965
-0.757568
-0.699493
0.0461712
-0.178274
-0.703104
-0.632997
-0.747386
-0.686362
-0.625127
-0.565688
-0.64725
-0.599797
-0.552039
-0.505294
-0.570527
-0.532616
-0.495405
-0.459204
-0.5082
-0.478063
-0.448302
-0.419206
-0.452698
-0.428423
-0.404389
-0.380767
-0.403088
-0.383475
-0.363928
-0.344536
-0.358027
-0.342055
-0.325999
-0.309924
-0.316936
-0.303883
-0.290651
-0.277285
-0.279617
-0.268946
-0.258027
-0.246893
-0.245769
-0.23705
-0.228044
-0.218778
-0.215163
-0.208057
-0.200655
-0.192974
-0.18754
-0.181779
-0.175726
-0.169395
-0.162628
-0.157983
-0.153061
-0.147873
-0.140135
-0.136405
-0.132419
-0.128188
-0.119759
-0.116773
-0.113557
-0.11012
-0.101245
-0.098864
-0.0962798
-0.0935006
-0.0844096
-0.0825256
-0.08047
-0.078247
-0.0691526
-0.0676916
-0.0660904
-0.0643502
-0.0554069
-0.0543196
-0.053116
-0.0518001
-0.0431413
-0.0423417
-0.0414665
-0.0405139
-0.0320507
-0.0315233
-0.0309407
-0.030308
-0.0219927
-0.0216914
-0.0213499
-0.0209872
-0.0127367
-0.0126561
-0.0124456
-0.0122958
-0.00388029
-0.0038011
-0.00388941
-0.00401063
770.18
706.125
670.195
589.16
645.967
252.33
188.844
226.575
321.377
265.833
145.027
222.183
385.228
374.47
273.46
207.001
245.034
468.721
679.715
808.412
716.023
550.741
596.73
532.408
119.597
166.142
305.436
243.298
226.127
237.202
232.404
101.395
-13.6981
-21.3039
-17.8392
1.87338
75.1682
446.32
810.339
656.426
549.286
598.889
305.408
48.0351
138.147
145.347
3.29155
1.53968
2.12146
-17.0308
-24.612
-25.2156
-27.0224
-27.0978
-19.4073
17.7402
84.2806
836.519
766.112
755.997
471.3
5.19164
1.57385
56.4333
-11.9664
-22.887
-25.9403
-29.4247
-30.3639
-29.2235
-29.1969
-29.9076
-29.6737
-25.9292
-0.151771
61.7074
911.242
897.368
893.24
257.619
-19.7691
-21.7793
-21.4159
-23.9924
-25.2996
-26.6198
-27.8316
-28.6038
-28.9321
-29.3359
-29.7707
-29.4543
-26.2067
-8.29959
64.8955
945.576
1033.19
913.546
58.127
-21.0893
-22.5323
-23.2784
-24.7558
-26.2771
-27.3138
-28.027
-28.5885
-28.8914
-29.1805
-29.3158
-23.6427
-20.1175
-17.2874
63.0147
542.756
1160.08
1041.54
139.853
-21.5229
-22.2911
-23.2625
-24.8689
-26.4055
-27.3215
-27.7734
-28.2142
-28.4845
-28.7331
-28.4695
95.9066
84.1578
-12.347
66.849
162.643
962.595
1189.27
849.373
-20.4115
-22.0821
-23.2063
-24.7595
-26.0898
-26.7896
-26.2347
-26.7952
-27.9086
-28.2157
70.5885
181.615
178.064
-0.426643
33.8065
53.7597
364.364
1140.73
1145.64
751.307
-22.2412
-23.3811
-24.5985
-25.6414
-26.072
-25.7188
-26.5165
-27.2053
-26.6866
194.841
208.1
126.8
1.28694
0.119196
290.215
276.278
317.296
1067.64
1142.41
688.764
-21.0164
-24.2646
-25.3249
-25.6321
-25.7887
-25.9237
-26.0222
115.559
217.2
234.996
31.9267
0.752053
0.829512
610.918
633.613
604.495
620.804
809.979
1122.78
328.025
-19.9948
-24.309
-25.1957
-25.1085
-24.5921
-21.2885
243.875
246.08
96.2378
1.07667
0.865135
1.02065
308.643
664.191
1048.96
1204.38
1213.1
1199.56
1180.59
730.58
427.291
82.2641
-19.8447
46.1997
359.85
272.217
81.1445
0.508043
0.853751
0.892082
0.96674
-0.213895
-0.384508
0.253495
289.741
1111.14
1260.47
1290.28
1299.44
1261.6
986.405
957.629
1000.38
984.018
113.007
0.690459
0.625291
0.819751
0.892644
0.972276
-0.0989979
-0.175803
0.00135237
-0.0255587
-0.0409605
377.205
1071.95
1198.56
1171.7
1191.05
1197.92
991.97
102.938
0.474999
0.580291
0.667694
0.786296
0.863291
0.932295
1.90022
-0.171044
-0.0800619
-0.0550969
-0.0362865
-0.0605672
-0.0209653
34.5235
135.646
372.846
211.168
0.248377
0.118389
0.368028
0.502937
0.620495
0.740762
0.82882
0.875384
1.91095
0.0909803
-0.145733
-0.0972741
-0.105747
-0.162276
-0.182981
-0.234636
-0.205426
-0.108317
-0.0152944
0.108166
0.190117
0.335069
0.47283
0.587289
0.695673
0.798177
0.810946
0.357376
0.0951269
-0.203423
-0.148963
-0.127976
-0.12289
-0.110979
-0.149704
-0.16105
-0.103055
-0.0129991
0.101275
0.204168
0.313909
0.430032
0.540827
0.618568
0.768262
0.831779
-0.512239
-0.344594
-0.240484
-0.186175
-0.156055
-0.139963
-0.128694
-0.123668
-0.102589
-0.0507448
0.0208766
0.103393
0.191342
0.28634
0.387005
0.491564
0.551975
1.44506
1.10527
-0.469605
-0.347287
-0.260036
-0.206462
-0.17098
-0.144731
-0.122357
-0.10208
-0.0761405
-0.0345933
0.023063
0.0917079
0.168032
0.250905
0.337064
0.426457
0.550305
2.49628
0.733047
-0.430812
-0.338892
-0.266332
-0.2152
-0.177297
-0.146145
-0.118559
-0.092194
-0.0627792
-0.0252274
0.021999
0.077379
0.140419
0.209394
0.277872
0.334237
0.615865
2.38736
0.347897
-0.400481
-0.326722
-0.265099
-0.21685
-0.178291
-0.145272
-0.115426
-0.0869256
-0.0574135
-0.02455
0.0131476
0.0568123
0.107827
0.163125
0.213885
0.242156
0.656635
2.23409
0.229113
-0.371719
-0.310759
-0.257483
-0.212821
-0.175228
-0.142263
-0.112193
-0.083848
-0.0562327
-0.0291241
-0.0013731
0.0306293
0.0702094
0.11299
0.147905
0.144031
0.845848
1.18455
0.152779
-0.341888
-0.290756
-0.244551
-0.204038
-0.168623
-0.13697
-0.108042
-0.0813988
-0.0574332
-0.0383126
-0.0226489
-0.00294841
0.0268883
0.0620237
0.0911317
0.0845723
1.13711
-0.0445787
0.104697
-0.312291
-0.268868
-0.228549
-0.192045
-0.159219
-0.12946
-0.102415
-0.078404
-0.0598574
-0.0520577
-0.0514985
-0.0438007
-0.0193444
0.0165295
0.0522282
0.0608331
1.17124
0.0947059
0.113896
-0.282986
-0.245973
-0.210704
-0.177883
-0.147693
-0.119948
-0.0949295
-0.0738107
-0.0622624
-0.068247
-0.0839059
-0.0843674
-0.0584121
-0.0136903
0.0407992
0.079999
0.530197
0.16202
0.154894
-0.254699
-0.223005
-0.192085
-0.162599
-0.134871
-0.108889
-0.0854137
-0.0649576
-0.0545744
-0.0776709
-0.105902
-0.106917
-0.0740784
-0.0153804
0.057046
0.135789
0.12057
0.138625
0.188065
-0.227913
-0.200751
-0.173647
-0.147181
-0.121706
-0.0971914
-0.074546
-0.0414496
-0.0348064
-0.0683657
-0.101924
-0.0964314
-0.05964
0.00561675
0.11802
0.218286
0.174594
0.168597
0.193518
-0.202853
-0.179627
-0.15598
-0.132399
-0.109166
-0.086154
-0.0640559
-0.0265513
-0.0188886
-0.0488528
-0.0656415
-0.0585781
-0.01219
0.0787137
0.138507
0.187726
0.188766
0.177157
0.176918
-0.17967
-0.159926
-0.139484
-0.118751
-0.0979257
-0.0768409
-0.0557458
-0.0169338
-0.00349728
-0.0207077
-0.0265452
-0.0209953
0.0172512
0.0553651
0.0763999
0.115272
0.168829
0.153713
0.153597
-0.158346
-0.141693
-0.124219
-0.106277
-0.0880303
-0.0693904
-0.0504128
-0.0235384
0.0035294
0.00898856
-0.00211117
-0.00231971
0.00290783
0.0108728
0.0407056
0.120658
0.148626
0.120757
0.132519
-0.138756
-0.12482
-0.110035
-0.0947162
-0.0790365
-0.0630321
-0.046829
-0.0307818
0.00183153
0.0146772
0.0159403
0.0014726
-0.00354803
0.00629542
0.0688413
0.109401
0.121262
0.104006
0.115475
-0.120704
-0.109114
-0.0966983
-0.0837411
-0.0704279
-0.05688
-0.0433158
-0.0301861
-0.017263
0.0097766
0.0161198
0.0168476
0.00353857
0.0103695
0.0826431
0.107616
0.0894709
0.092486
0.101367
-0.104001
-0.0944092
-0.0840448
-0.0731671
-0.0619533
-0.0505451
-0.0391401
-0.0281033
-0.0179692
-0.00963975
0.0127319
0.0210419
0.0129318
0.0172555
0.0757835
0.108447
0.0827799
0.0827671
0.0884705
-0.0885247
-0.0806394
-0.0720605
-0.0630231
-0.0536739
-0.0441374
-0.0345239
-0.0250256
-0.0159664
-0.00814255
-0.00185034
0.00645717
0.0114991
0.0209817
0.058953
0.0777597
0.0669832
0.0723351
0.0756456
-0.0742486
-0.0678511
-0.0608681
-0.0534963
-0.0458396
-0.0379972
-0.030008
-0.0218948
-0.013917
-0.00705591
-0.0012208
0.00438286
0.0103321
0.0201834
0.0425221
0.0463921
0.0553899
0.0605361
0.062411
-0.0612077
-0.0561422
-0.0506242
-0.0447904
-0.0386983
-0.0324325
-0.0260221
-0.0193406
-0.0126308
-0.00710884
-0.00211549
0.00268752
0.00696043
0.0279785
0.0334195
0.0391939
0.0439765
0.0474679
0.0486628
-0.0494134
-0.0455553
-0.0413845
-0.0369766
-0.0323307
-0.0275275
-0.0226296
-0.017384
-0.0121039
-0.00812623
-0.00405987
-0.000790684
0.0137731
0.0326921
0.0277291
0.0269664
0.031117
0.0336518
0.0345694
-0.0387886
-0.0360251
-0.0330797
-0.0299885
-0.0266877
-0.0232484
-0.0197775
-0.0159604
-0.0122507
-0.00978778
-0.00683863
-0.00521294
0.0195441
0.0266069
0.0149799
0.0149153
0.0179236
0.0197195
0.0204532
-0.0291721
-0.0274043
-0.0255778
-0.0237007
-0.021681
-0.0195779
-0.0175146
-0.015196
-0.0131094
-0.0119976
-0.0101782
-0.00829035
0.0148956
0.00486206
-0.000121525
0.00309846
0.00508866
0.0061459
0.00664523
-0.0203647
-0.0195025
-0.0187213
-0.0179859
-0.017227
-0.0165007
-0.0158796
-0.0151417
-0.0146489
-0.0146664
-0.0140602
-0.0131066
0.0105987
-0.0118042
-0.00956081
-0.00812837
-0.00726845
-0.0069684
-0.00678094
-0.0121284
-0.0121189
-0.0123524
-0.0127621
-0.0133039
-0.0139979
-0.0148404
-0.0156861
-0.0167528
-0.017928
-0.0186417
-0.019659
-0.015563
-0.0188886
-0.0189902
-0.019218
-0.0196322
-0.020163
-0.0203515
-0.00431415
-0.00513845
-0.00640883
-0.00799271
-0.0098852
-0.0120066
-0.0143409
-0.0167513
-0.0195203
-0.0220148
-0.0241405
-0.0261614
-0.025528
-0.0272137
-0.0289074
-0.0310386
-0.0330326
-0.0346473
-0.0351781
)
;

boundaryField
{
    leftWall
    {
        type            fixedFluxPressure;
        gradient        uniform 0;
        value           nonuniform List<scalar> 
50
(
1196.64
1201.27
1205.6
1210.13
1215.95
1224.71
1237.84
1257.12
1292.85
1340.51
1387.71
1712.47
1680.98
951.164
489.759
71.1663
0.359531
-1.69611
-2.41991
-2.33557
-1.74557
-0.412254
-0.819706
-1.27651
-1.7994
-2.04112
-1.82428
-1.36417
-0.911253
-0.540886
-0.30498
-0.166872
-0.084974
-0.0351678
-0.0049601
0.0128628
0.0224793
0.0268546
0.0279847
0.0271583
0.0252078
0.022664
0.019857
0.0169834
0.0141512
0.0114058
0.00876531
0.00617781
0.00375852
0.000811017
)
;
    }
    rightWall
    {
        type            fixedFluxPressure;
        gradient        uniform 0;
        value           nonuniform List<scalar> 
50
(
678.237
667.798
632.845
572.432
565.519
614.373
676.623
665.693
679.715
446.32
84.2806
61.7074
64.8955
63.0147
66.849
33.8065
0.119196
0.829512
1.02065
0.96674
0.972276
0.932295
0.875384
0.810946
0.831779
1.10527
0.733047
0.347897
0.229113
0.152779
0.104697
0.113896
0.154894
0.188065
0.193518
0.176918
0.153597
0.132519
0.115475
0.101367
0.0884705
0.0756456
0.062411
0.0486628
0.0345694
0.0204532
0.00664523
-0.00678094
-0.0203515
-0.0351781
)
;
    }
    lowerWall
    {
        type            fixedFluxPressure;
        gradient        uniform 0;
        value           nonuniform List<scalar> 
62
(
1196.64
1180.07
1150.45
1111.99
1070.67
1028.48
985.639
942.472
900.351
860.824
825.915
797.661
777.993
766.486
761.802
760.031
761.864
767.03
774.228
782.683
790.808
794.598
793.375
793.375
791.265
788.116
784.562
780.886
776.841
771.026
764.95
769.673
781.288
786.819
786.013
687.498
693.93
691.917
682.418
675.045
678.416
685.82
716.03
687.498
620.931
593.109
610.728
576.507
466.421
415.051
383.97
362.643
366.659
358.963
343.804
359.73
428.764
515.001
563.598
596.966
644.911
678.237
)
;
    }
    atmosphere
    {
        type            totalPressure;
        rho             rho;
        psi             none;
        gamma           1;
        p0              uniform 0;
        value           nonuniform List<scalar> 
46
(
0
0
0
0
0
0
0
0
0
0
0
0
0
0
0
0
0
0
0
0
0
0
0
0
0
-3.34989e-05
-0.000165719
-0.000654938
-0.00186973
-0.00372403
-0.00584213
-0.00841136
-0.011213
-0.0143296
-0.0175078
-0.0213836
-0.02457
-0.0274966
-0.0302802
-0.028374
-0.0312805
-0.0342273
-0.0377059
-0.0407625
-0.0432044
-0.0437335
)
;
    }
    defaultFaces
    {
        type            empty;
    }
}


// ************************************************************************* //
