/*--------------------------------*- C++ -*----------------------------------*\
| =========                 |                                                 |
| \\      /  F ield         | OpenFOAM: The Open Source CFD Toolbox           |
|  \\    /   O peration     | Version:  2206                                  |
|   \\  /    A nd           | Website:  www.openfoam.com                      |
|    \\/     M anipulation  |                                                 |
\*---------------------------------------------------------------------------*/
FoamFile
{
    version     2.0;
    format      ascii;
    arch        "LSB;label=32;scalar=64";
    class       volVectorField;
    location    "0.25";
    object      U;
}
// * * * * * * * * * * * * * * * * * * * * * * * * * * * * * * * * * * * * * //

dimensions      [0 1 -1 0 0 0 0];

internalField   nonuniform List<vector> 
2268
(
(-0.00861388 0.00520738 0)
(-0.000354107 -0.0156681 0)
(0.0212395 -0.0185388 0)
(0.0383855 -0.0145272 0)
(0.051201 -0.0102821 0)
(0.0604802 -0.00766704 0)
(0.0678298 -0.00624771 0)
(0.0741963 -0.00522059 0)
(0.0796022 -0.00408346 0)
(0.0837481 -0.00262836 0)
(0.0863091 -0.000777729 0)
(0.0871109 0.00154645 0)
(0.0856156 0.0042986 0)
(0.0816893 0.00743993 0)
(0.0751079 0.0109369 0)
(0.0657219 0.0146708 0)
(0.0536033 0.0183617 0)
(0.0393251 0.0212024 0)
(0.0235015 0.0220391 0)
(0.00623956 0.0185565 0)
(-0.00602988 0.0121589 0)
(-0.0174319 -0.0166494 0)
(-0.0110108 -0.0501229 0)
(-0.00769716 0.0140107 0)
(0.00175266 -0.0469664 0)
(0.0229292 -0.0552086 0)
(0.040231 -0.0433913 0)
(0.0532769 -0.0311824 0)
(0.0631957 -0.0238206 0)
(0.0715136 -0.0198727 0)
(0.0789674 -0.016999 0)
(0.0855312 -0.0138456 0)
(0.090977 -0.00996476 0)
(0.0951178 -0.00532137 0)
(0.0976475 2.8824e-05 0)
(0.0987642 0.00599057 0)
(0.0984233 0.0124413 0)
(0.0965997 0.0193144 0)
(0.0932304 0.0263535 0)
(0.0881273 0.0330675 0)
(0.0811845 0.0387291 0)
(0.0724061 0.0421109 0)
(0.0593609 0.0409586 0)
(0.049769 0.0358683 0)
(0.0203495 0.0200017 0)
(0.0246549 -0.00463853 0)
(-0.00548295 0.0181009 0)
(0.00560459 -0.0781988 0)
(0.0261343 -0.0916346 0)
(0.0436879 -0.0726324 0)
(0.0573658 -0.0534761 0)
(0.0685224 -0.0421834 0)
(0.0784653 -0.0360935 0)
(0.0875808 -0.0314484 0)
(0.0956825 -0.0262275 0)
(0.102501 -0.0198571 0)
(0.107806 -0.0123886 0)
(0.111417 -0.00405418 0)
(0.113108 0.0049429 0)
(0.112805 0.0144232 0)
(0.110493 0.0242796 0)
(0.106194 0.0341687 0)
(0.100042 0.043541 0)
(0.0921017 0.0518769 0)
(0.0830809 0.0594746 0)
(0.068376 0.0650387 0)
(0.058885 0.0655775 0)
(0.0230233 0.0546951 0)
(0.0332051 0.038265 0)
(-0.00207913 0.0147065 0)
(0.0114218 -0.109822 0)
(0.0311333 -0.128119 0)
(0.0489727 -0.102886 0)
(0.0637744 -0.0782228 0)
(0.0768539 -0.0640348 0)
(0.0891584 -0.0561988 0)
(0.100719 -0.0497467 0)
(0.111226 -0.0422157 0)
(0.120407 -0.0329854 0)
(0.128019 -0.0221462 0)
(0.133792 -0.00994942 0)
(0.137295 0.00333309 0)
(0.1383 0.0175884 0)
(0.136635 0.0324262 0)
(0.131955 0.0473439 0)
(0.12418 0.0616214 0)
(0.113004 0.0744669 0)
(0.0995833 0.0867004 0)
(0.0792415 0.0982642 0)
(0.0652105 0.102467 0)
(0.0256758 0.0911457 0)
(0.0373954 0.0909509 0)
(0.00186578 0.0016678 0)
(0.0186232 -0.143823 0)
(0.0382175 -0.165093 0)
(0.0562577 -0.134905 0)
(0.0725287 -0.106692 0)
(0.0881139 -0.0908899 0)
(0.10339 -0.0817838 0)
(0.118017 -0.0735691 0)
(0.131586 -0.0636458 0)
(0.143821 -0.0514605 0)
(0.154478 -0.0371427 0)
(0.163242 -0.0209187 0)
(0.169814 -0.00297252 0)
(0.173543 0.0166401 0)
(0.173908 0.0375425 0)
(0.170546 0.0592196 0)
(0.163029 0.0806889 0)
(0.150576 0.100852 0)
(0.133871 0.120026 0)
(0.10873 0.138446 0)
(0.0867349 0.148201 0)
(0.0414382 0.135196 0)
(0.037642 0.148355 0)
(0.00637577 -0.0230415 0)
(0.0268257 -0.181551 0)
(0.0470265 -0.202337 0)
(0.0654777 -0.16879 0)
(0.0835382 -0.139529 0)
(0.102101 -0.12365 0)
(0.12087 -0.113872 0)
(0.139181 -0.104083 0)
(0.156588 -0.0918676 0)
(0.17285 -0.0768001 0)
(0.187747 -0.0589631 0)
(0.200919 -0.0384108 0)
(0.211899 -0.0151011 0)
(0.21979 0.0110423 0)
(0.223835 0.0402655 0)
(0.223074 0.0720255 0)
(0.216626 0.10543 0)
(0.203758 0.139274 0)
(0.184878 0.172848 0)
(0.15715 0.204288 0)
(0.126397 0.225745 0)
(0.0714656 0.219553 0)
(0.0374847 0.23984 0)
(0.0108254 -0.059814 0)
(0.0353187 -0.224466 0)
(0.0568194 -0.240431 0)
(0.0762952 -0.205131 0)
(0.0966984 -0.177497 0)
(0.11873 -0.163191 0)
(0.141508 -0.153595 0)
(0.164171 -0.142895 0)
(0.1863 -0.129125 0)
(0.207729 -0.111985 0)
(0.228267 -0.0913763 0)
(0.247507 -0.0671072 0)
(0.265158 -0.0390762 0)
(0.280866 -0.00729084 0)
(0.292834 0.0286812 0)
(0.29927 0.0688465 0)
(0.299601 0.111393 0)
(0.292137 0.154603 0)
(0.274028 0.198217 0)
(0.239142 0.244087 0)
(0.189871 0.293774 0)
(0.117099 0.318274 0)
(0.0599235 0.351001 0)
(0.0154978 -0.10951 0)
(0.0444714 -0.273947 0)
(0.0662527 -0.281224 0)
(0.0866904 -0.245854 0)
(0.109725 -0.222404 0)
(0.135316 -0.211188 0)
(0.162052 -0.202704 0)
(0.189122 -0.192095 0)
(0.216281 -0.178015 0)
(0.243601 -0.160116 0)
(0.270868 -0.13788 0)
(0.297622 -0.110529 0)
(0.323391 -0.0774535 0)
(0.347745 -0.0379553 0)
(0.368903 0.00866911 0)
(0.382761 0.0635758 0)
(0.388974 0.12857 0)
(0.38812 0.204328 0)
(0.378154 0.291299 0)
(0.355051 0.377711 0)
(0.309951 0.454941 0)
(0.244566 0.504301 0)
(0.0662244 0.605231 0)
(0.00151393 -0.00225883 0)
(0.00542946 -0.00233398 0)
(0.0093257 -0.00188829 0)
(0.0125601 -0.00167215 0)
(0.0156094 -0.00144356 0)
(0.0181144 -0.00114319 0)
(0.0201447 -0.00085387 0)
(0.0216108 -0.00053094 0)
(0.0223911 -0.000181099 0)
(0.0225002 0.000158525 0)
(0.0219634 0.000474753 0)
(0.0208355 0.000768407 0)
(0.0191848 0.00103518 0)
(0.0170466 0.00125641 0)
(0.014491 0.00145304 0)
(0.0116129 0.00160653 0)
(0.00847156 0.00172553 0)
(0.00516985 0.00178563 0)
(0.00174227 0.00185887 0)
(0.00123652 -0.00475765 0)
(0.00511365 -0.00604762 0)
(0.00900284 -0.00539693 0)
(0.0121814 -0.00518136 0)
(0.0156015 -0.00461646 0)
(0.0184917 -0.00376841 0)
(0.0208064 -0.00283699 0)
(0.0224409 -0.00180542 0)
(0.0233767 -0.000724483 0)
(0.0235837 0.00034338 0)
(0.0230959 0.00136007 0)
(0.0219678 0.0023034 0)
(0.0202514 0.00314637 0)
(0.0180124 0.00386576 0)
(0.0153291 0.0044824 0)
(0.0122892 0.0049708 0)
(0.00897131 0.00533941 0)
(0.00547448 0.00552889 0)
(0.00183977 0.00572999 0)
(0.000391032 -0.0112803 0)
(0.00453723 -0.0126262 0)
(0.0094405 -0.0101708 0)
(0.0128941 -0.00954542 0)
(0.0168059 -0.0081814 0)
(0.0198905 -0.00669989 0)
(0.0222716 -0.0050099 0)
(0.0239627 -0.00317056 0)
(0.0248568 -0.00129116 0)
(0.0249692 0.000559841 0)
(0.024352 0.00231967 0)
(0.0230664 0.00393529 0)
(0.0211815 0.0053782 0)
(0.0187849 0.00662272 0)
(0.0159491 0.00767979 0)
(0.0127602 0.00851052 0)
(0.00930248 0.00912945 0)
(0.00567012 0.0094491 0)
(0.00190326 0.00978421 0)
(0.000794891 -0.00696766 0)
(0.00694008 -0.0134786 0)
(0.0121282 -0.0114177 0)
(0.0145626 -0.0127598 0)
(0.0188572 -0.0113 0)
(0.0219844 -0.00950977 0)
(0.0245891 -0.00713468 0)
(0.0263914 -0.00447723 0)
(0.0272782 -0.00174102 0)
(0.0272969 0.000942906 0)
(0.0265119 0.00346642 0)
(0.0250191 0.00577291 0)
(0.0228988 0.00784267 0)
(0.020255 0.00960295 0)
(0.0171516 0.0110715 0)
(0.0136793 0.0122452 0)
(0.00995755 0.0131127 0)
(0.00606465 0.0135532 0)
(0.002035 0.0140079 0)
(-0.00543616 -0.0252758 0)
(0.000636445 -0.0301632 0)
(0.00928195 -0.0198463 0)
(0.0128748 -0.0208922 0)
(0.0201969 -0.0166772 0)
(0.0242793 -0.013453 0)
(0.0276101 -0.00982388 0)
(0.0296959 -0.00598858 0)
(0.0306215 -0.00219504 0)
(0.0305149 0.00145301 0)
(0.0294999 0.00483885 0)
(0.0277299 0.00791885 0)
(0.0252631 0.0106085 0)
(0.0222245 0.0129164 0)
(0.0187618 0.0148113 0)
(0.0149361 0.0163247 0)
(0.0108379 0.0174372 0)
(0.00657822 0.0180072 0)
(0.00220065 0.0185763 0)
(-0.00550138 0.00454037 0)
(0.0069469 -0.0239559 0)
(0.0196928 -0.0179792 0)
(0.0173497 -0.0239731 0)
(0.026448 -0.0199631 0)
(0.0291432 -0.0168535 0)
(0.0324371 -0.0123591 0)
(0.0344586 -0.00742969 0)
(0.035179 -0.0024679 0)
(0.0347853 0.00227912 0)
(0.0334066 0.00658213 0)
(0.0311795 0.0104949 0)
(0.0282383 0.0138139 0)
(0.0247479 0.0166647 0)
(0.0207953 0.0190192 0)
(0.0164925 0.0208536 0)
(0.0119402 0.0222036 0)
(0.0072347 0.0229077 0)
(0.00241389 0.0235812 0)
(-0.0521805 -0.0335916 0)
(-0.026519 -0.0667894 0)
(0.00785615 -0.0303218 0)
(0.0101946 -0.0376788 0)
(0.0279233 -0.0271024 0)
(0.0323584 -0.0223482 0)
(0.0375461 -0.0158302 0)
(0.0401648 -0.00910787 0)
(0.0409285 -0.00261069 0)
(0.0401559 0.00338694 0)
(0.0382663 0.00879353 0)
(0.0354558 0.0135731 0)
(0.0318586 0.0176138 0)
(0.0277929 0.0209958 0)
(0.0232438 0.023773 0)
(0.018349 0.0259227 0)
(0.0132524 0.0275058 0)
(0.00801086 0.0283292 0)
(0.00266527 0.0290765 0)
(-0.00714046 0.0896083 0)
(-0.049997 -0.0694327 0)
(0.0428641 -0.0487474 0)
(0.0144367 -0.0453742 0)
(0.0409034 -0.0367822 0)
(0.041339 -0.0287322 0)
(0.0463985 -0.0197017 0)
(0.04848 -0.0106781 0)
(0.0484889 -0.00225615 0)
(0.0469684 0.00520958 0)
(0.0442997 0.0118147 0)
(0.0406248 0.0174295 0)
(0.0361918 0.0222085 0)
(0.0313487 0.0261148 0)
(0.0260766 0.0292257 0)
(0.0204985 0.0316821 0)
(0.0147617 0.0334548 0)
(0.00889504 0.0343732 0)
(0.00295144 0.0351486 0)
(0.0203356 -0.158994 0)
(0.0540428 -0.313646 0)
(0.0712274 -0.311426 0)
(0.0906298 -0.278318 0)
(0.114995 -0.259941 0)
(0.142506 -0.251601 0)
(0.171285 -0.244036 0)
(0.200949 -0.233809 0)
(0.231827 -0.220259 0)
(0.264635 -0.203168 0)
(0.299697 -0.18203 0)
(0.337428 -0.155769 0)
(0.376447 -0.123193 0)
(0.416419 -0.08051 0)
(0.45477 -0.0194489 0)
(0.49148 0.0537014 0)
(0.532183 0.122361 0)
(0.563814 0.197208 0)
(0.568847 0.286834 0)
(0.54611 0.39162 0)
(0.495331 0.516768 0)
(0.483742 0.618152 0)
(0.356937 0.794719 0)
(0.0310992 -0.206707 0)
(0.0706566 -0.336827 0)
(0.0732964 -0.325881 0)
(0.0901154 -0.300685 0)
(0.116732 -0.288944 0)
(0.146834 -0.283574 0)
(0.178595 -0.278208 0)
(0.212498 -0.271332 0)
(0.24918 -0.262742 0)
(0.289649 -0.252615 0)
(0.334726 -0.240661 0)
(0.385161 -0.225924 0)
(0.440694 -0.207342 0)
(0.503144 -0.183375 0)
(0.556455 -0.138721 0)
(0.604142 -0.0815387 0)
(0.639103 -0.0316272 0)
(0.651502 0.0676094 0)
(0.638881 0.214524 0)
(0.620885 0.367513 0)
(0.590918 0.522017 0)
(0.612264 0.639321 0)
(0.566051 0.800134 0)
(0.0518751 -0.269716 0)
(0.0984327 -0.362241 0)
(0.0803593 -0.338902 0)
(0.0982537 -0.330547 0)
(0.133037 -0.328775 0)
(0.171047 -0.327437 0)
(0.209633 -0.325513 0)
(0.250138 -0.323378 0)
(0.29354 -0.319599 0)
(0.339692 -0.313788 0)
(0.388125 -0.304146 0)
(0.436741 -0.287081 0)
(0.485849 -0.259361 0)
(0.515646 -0.214366 0)
(0.49696 -0.10903 0)
(0.49433 -0.00886441 0)
(0.298559 0.0711688 0)
(0.425795 0.184165 0)
(0.488342 0.320952 0)
(0.541256 0.422192 0)
(0.561215 0.528014 0)
(0.629304 0.631866 0)
(0.664323 0.752799 0)
(0.0514444 -0.36903 0)
(0.10709 -0.378866 0)
(0.0947521 -0.341602 0)
(0.128104 -0.36566 0)
(0.173217 -0.376872 0)
(0.215253 -0.37809 0)
(0.246914 -0.369963 0)
(0.272863 -0.36059 0)
(0.294027 -0.347338 0)
(0.305478 -0.329415 0)
(0.304375 -0.305578 0)
(0.292095 -0.273614 0)
(0.268968 -0.238015 0)
(0.254767 -0.154022 0)
(0.21767 -0.00359787 0)
(0.347024 0.122844 0)
(0.161183 0.260262 0)
(-0.191658 -0.00237457 0)
(-0.189111 0.131981 0)
(0.179927 0.35404 0)
(0.360418 0.469292 0)
(0.515068 0.547969 0)
(0.661034 0.682652 0)
(-0.0312386 -0.458889 0)
(-0.00174129 -0.34679 0)
(0.0687843 -0.356525 0)
(0.104367 -0.389896 0)
(0.12167 -0.395168 0)
(0.13706 -0.378106 0)
(0.154483 -0.360627 0)
(0.169249 -0.35019 0)
(0.179733 -0.331695 0)
(0.187038 -0.310887 0)
(0.190148 -0.285266 0)
(0.188185 -0.253086 0)
(0.184246 -0.216861 0)
(0.187795 -0.160679 0)
(0.180835 -0.152623 0)
(0.319873 0.0639674 0)
(0.351944 0.440644 0)
(0.239046 0.401186 0)
(0.166859 0.0706042 0)
(0.0212211 -0.140764 0)
(0.18266 0.202171 0)
(0.294681 0.31904 0)
(0.538183 0.479035 0)
(-0.043836 -0.375408 0)
(-0.0200051 -0.428595 0)
(0.0498502 -0.43963 0)
(0.0892427 -0.43025 0)
(0.110376 -0.418388 0)
(0.128171 -0.408084 0)
(0.147366 -0.396366 0)
(0.166917 -0.382232 0)
(0.185492 -0.364326 0)
(0.20286 -0.341403 0)
(0.218355 -0.313113 0)
(0.231914 -0.278554 0)
(0.245867 -0.241945 0)
(0.269038 -0.199478 0)
(0.303998 -0.156236 0)
(0.357921 -0.0798077 0)
(0.473916 0.277952 0)
(0.61808 0.469492 0)
(0.654322 0.355778 0)
(0.568717 0.173793 0)
(0.461251 0.14499 0)
(0.345482 0.169288 0)
(0.361997 0.170925 0)
(-0.0164673 -0.355002 0)
(0.0148099 -0.511221 0)
(0.0605298 -0.494774 0)
(0.0935698 -0.46374 0)
(0.119501 -0.446431 0)
(0.14438 -0.435211 0)
(0.16938 -0.423449 0)
(0.193812 -0.408068 0)
(0.217306 -0.388346 0)
(0.239712 -0.362954 0)
(0.260814 -0.331811 0)
(0.281327 -0.296697 0)
(0.305618 -0.264296 0)
(0.339516 -0.241424 0)
(0.39269 -0.208791 0)
(0.45693 -0.134612 0)
(0.55021 0.0213504 0)
(0.726922 0.185109 0)
(0.907653 0.261488 0)
(0.980529 0.263154 0)
(0.902386 0.304576 0)
(0.76989 0.386925 0)
(0.36328 0.120556 0)
(0.00641009 -0.364037 0)
(0.0350561 -0.545609 0)
(0.0665502 -0.526071 0)
(0.0966107 -0.492804 0)
(0.12558 -0.475544 0)
(0.154453 -0.46423 0)
(0.183091 -0.451616 0)
(0.211161 -0.435517 0)
(0.238816 -0.415115 0)
(0.266148 -0.388952 0)
(0.293583 -0.357743 0)
(0.321395 -0.326002 0)
(0.354164 -0.301693 0)
(0.394027 -0.29278 0)
(0.445277 -0.282357 0)
(0.518271 -0.228552 0)
(0.616364 -0.112286 0)
(0.746231 -0.00244861 0)
(0.911918 0.0773847 0)
(1.08282 0.189402 0)
(1.15902 0.346338 0)
(1.1556 0.556563 0)
(0.91268 0.540283 0)
(0.0150748 -0.390239 0)
(0.0447695 -0.58301 0)
(0.0741865 -0.558221 0)
(0.104417 -0.524887 0)
(0.135702 -0.508908 0)
(0.167431 -0.497898 0)
(0.199242 -0.485062 0)
(0.231081 -0.468858 0)
(0.263196 -0.448576 0)
(0.295791 -0.42297 0)
(0.329809 -0.392756 0)
(0.364506 -0.363791 0)
(0.402596 -0.343364 0)
(0.441614 -0.340215 0)
(0.481735 -0.343602 0)
(0.537169 -0.312098 0)
(0.619722 -0.226729 0)
(0.730365 -0.146267 0)
(0.868484 -0.0995991 0)
(1.03404 0.0226686 0)
(1.19065 0.255535 0)
(1.3061 0.575422 0)
(1.21425 0.793287 0)
(0.0190911 -0.424441 0)
(0.0516641 -0.61926 0)
(0.0817291 -0.591263 0)
(0.113403 -0.559228 0)
(0.146974 -0.544708 0)
(0.181261 -0.534253 0)
(0.215917 -0.521663 0)
(0.251071 -0.505882 0)
(0.287022 -0.486386 0)
(0.324248 -0.462225 0)
(0.363811 -0.433655 0)
(0.404832 -0.405925 0)
(0.44709 -0.385099 0)
(0.486302 -0.378881 0)
(0.519058 -0.385795 0)
(0.557705 -0.377837 0)
(0.625074 -0.32975 0)
(0.728423 -0.288301 0)
(0.855388 -0.268009 0)
(0.988664 -0.166068 0)
(1.1338 0.081912 0)
(1.27538 0.464962 0)
(1.29388 0.873003 0)
(0.0209771 -0.463994 0)
(0.0561582 -0.656408 0)
(0.0881734 -0.625769 0)
(0.121729 -0.595834 0)
(0.15745 -0.583025 0)
(0.194104 -0.573389 0)
(0.231419 -0.561466 0)
(0.269627 -0.546576 0)
(0.309023 -0.528514 0)
(0.350254 -0.506627 0)
(0.394265 -0.480749 0)
(0.440954 -0.453981 0)
(0.488293 -0.43102 0)
(0.532388 -0.41762 0)
(0.568724 -0.418309 0)
(0.599609 -0.425532 0)
(0.648709 -0.417747 0)
(0.730825 -0.404623 0)
(0.828194 -0.391098 0)
(0.936513 -0.289058 0)
(1.0469 -0.032902 0)
(1.16803 0.376642 0)
(1.21936 0.874403 0)
(0.0218268 -0.506752 0)
(0.0593711 -0.695674 0)
(0.0937915 -0.662794 0)
(0.129499 -0.634973 0)
(0.167304 -0.623851 0)
(0.206193 -0.615254 0)
(0.246016 -0.604362 0)
(0.287037 -0.59076 0)
(0.32952 -0.574489 0)
(0.374013 -0.555204 0)
(0.421286 -0.532659 0)
(0.471789 -0.507985 0)
(0.523937 -0.484086 0)
(0.574686 -0.464586 0)
(0.619905 -0.454461 0)
(0.654332 -0.458334 0)
(0.685326 -0.472006 0)
(0.734466 -0.487425 0)
(0.795092 -0.490909 0)
(0.856542 -0.407098 0)
(0.935287 -0.145328 0)
(1.0186 0.311337 0)
(1.08373 0.86712 0)
(0.0224997 -0.551643 0)
(0.0620991 -0.737116 0)
(0.0986773 -0.702194 0)
(0.136449 -0.676437 0)
(0.176229 -0.667015 0)
(0.217199 -0.659641 0)
(0.259325 -0.650062 0)
(0.302885 -0.638034 0)
(0.348125 -0.623685 0)
(0.395386 -0.606908 0)
(0.445141 -0.587573 0)
(0.497788 -0.565939 0)
(0.552811 -0.543121 0)
(0.608156 -0.520804 0)
(0.660327 -0.50174 0)
(0.703636 -0.490868 0)
(0.730253 -0.497487 0)
(0.75071 -0.520982 0)
(0.769431 -0.527763 0)
(0.775282 -0.442436 0)
(0.793154 -0.179994 0)
(0.834035 0.231931 0)
(0.919988 0.792737 0)
(0.023256 -0.598475 0)
(0.0645359 -0.780502 0)
(0.102801 -0.743697 0)
(0.142387 -0.720023 0)
(0.183958 -0.712337 0)
(0.226809 -0.706346 0)
(0.271009 -0.698323 0)
(0.316874 -0.688124 0)
(0.364662 -0.675828 0)
(0.414592 -0.661378 0)
(0.466823 -0.644706 0)
(0.521486 -0.625851 0)
(0.5783 -0.604832 0)
(0.636058 -0.58191 0)
(0.692261 -0.557483 0)
(0.742343 -0.533231 0)
(0.777667 -0.517399 0)
(0.79331 -0.524791 0)
(0.784107 -0.510258 0)
(0.753909 -0.395738 0)
(0.723913 -0.1605 0)
(0.728189 0.220573 0)
(0.791017 0.680334 0)
(0.0241055 -0.64717 0)
(0.0666497 -0.825304 0)
(0.106069 -0.786894 0)
(0.147148 -0.76545 0)
(0.190262 -0.759565 0)
(0.234741 -0.755118 0)
(0.280761 -0.748894 0)
(0.328705 -0.74081 0)
(0.378886 -0.730845 0)
(0.431545 -0.718851 0)
(0.486727 -0.704663 0)
(0.54446 -0.688139 0)
(0.604201 -0.668747 0)
(0.66521 -0.645978 0)
(0.725825 -0.617979 0)
(0.781715 -0.58524 0)
(0.82926 -0.552391 0)
(0.863177 -0.529345 0)
(0.873037 -0.503387 0)
(0.872276 -0.415465 0)
(0.830473 -0.146458 0)
(0.759948 0.210835 0)
(0.76331 0.574232 0)
(0.0249639 -0.6976 0)
(0.0683129 -0.870903 0)
(0.108353 -0.831343 0)
(0.150565 -0.812373 0)
(0.194895 -0.808376 0)
(0.240677 -0.805649 0)
(0.288208 -0.801494 0)
(0.337955 -0.795871 0)
(0.390326 -0.788678 0)
(0.445686 -0.779651 0)
(0.504189 -0.768465 0)
(0.566057 -0.754713 0)
(0.630635 -0.73745 0)
(0.69788 -0.715697 0)
(0.766001 -0.685842 0)
(0.832184 -0.647684 0)
(0.893852 -0.605402 0)
(0.952326 -0.566865 0)
(0.992338 -0.512945 0)
(1.01577 -0.382748 0)
(1.00467 -0.0817336 0)
(0.918185 0.295053 0)
(0.865331 0.550785 0)
(0.0256963 -0.749496 0)
(0.0693663 -0.916655 0)
(0.109529 -0.876585 0)
(0.152474 -0.860382 0)
(0.197609 -0.858368 0)
(0.244288 -0.857549 0)
(0.292931 -0.85576 0)
(0.344104 -0.853005 0)
(0.398336 -0.849135 0)
(0.456172 -0.843829 0)
(0.517995 -0.836664 0)
(0.584437 -0.826994 0)
(0.654996 -0.813583 0)
(0.730952 -0.794908 0)
(0.809834 -0.766181 0)
(0.891741 -0.726875 0)
(0.97556 -0.68308 0)
(1.06319 -0.634294 0)
(1.14638 -0.559289 0)
(1.20073 -0.407256 0)
(1.21562 -0.0794567 0)
(1.14116 0.363711 0)
(1.05595 0.625825 0)
(0.0261737 -0.802414 0)
(0.0696733 -0.961942 0)
(0.109504 -0.922159 0)
(0.152734 -0.908994 0)
(0.198182 -0.909035 0)
(0.245248 -0.910305 0)
(0.294479 -0.911185 0)
(0.346537 -0.911728 0)
(0.402097 -0.911801 0)
(0.461909 -0.911115 0)
(0.526664 -0.909259 0)
(0.597458 -0.905496 0)
(0.674175 -0.898511 0)
(0.759894 -0.886221 0)
(0.851219 -0.863059 0)
(0.953317 -0.8303 0)
(1.06635 -0.792187 0)
(1.19263 -0.748495 0)
(1.3313 -0.654134 0)
(1.42856 -0.443448 0)
(1.43675 -0.0565215 0)
(1.35117 0.466487 0)
(1.17898 0.813468 0)
(0.0263065 -0.855762 0)
(0.0691443 -1.00621 0)
(0.108224 -0.967594 0)
(0.151242 -0.957643 0)
(0.196431 -0.959759 0)
(0.243274 -0.963259 0)
(0.292423 -0.967055 0)
(0.344618 -0.971278 0)
(0.400678 -0.97589 0)
(0.461569 -0.980744 0)
(0.52832 -0.98559 0)
(0.602477 -0.989846 0)
(0.684562 -0.992404 0)
(0.779678 -0.990812 0)
(0.88298 -0.979963 0)
(1.00963 -0.964073 0)
(1.15414 -0.943571 0)
(1.3309 -0.921995 0)
(1.53288 -0.811829 0)
(1.67033 -0.507506 0)
(1.66042 -0.000851113 0)
(1.51706 0.635045 0)
(1.22169 1.11184 0)
(0.0260445 -0.908841 0)
(0.0677391 -1.04895 0)
(0.105677 -1.0124 0)
(0.147946 -1.0057 0)
(0.192246 -1.00984 0)
(0.238174 -1.01563 0)
(0.286441 -1.02247 0)
(0.337825 -1.0306 0)
(0.393242 -1.04017 0)
(0.453832 -1.05128 0)
(0.520892 -1.06403 0)
(0.596343 -1.07828 0)
(0.68157 -1.09352 0)
(0.78329 -1.10758 0)
(0.895709 -1.11817 0)
(1.04867 -1.13161 0)
(1.21768 -1.14864 0)
(1.45658 -1.17526 0)
(1.71051 -1.03907 0)
(1.85953 -0.581896 0)
(1.83001 0.105055 0)
(1.61197 0.89132 0)
(1.22349 1.50504 0)
(0.0253724 -0.960904 0)
(0.0654687 -1.08974 0)
(0.101906 -1.05605 0)
(0.142868 -1.05248 0)
(0.18563 -1.05851 0)
(0.229909 -1.06653 0)
(0.27642 -1.07637 0)
(0.325905 -1.0884 0)
(0.379304 -1.10299 0)
(0.437801 -1.1206 0)
(0.50278 -1.14178 0)
(0.576312 -1.16712 0)
(0.660542 -1.19707 0)
(0.762515 -1.23083 0)
(0.877767 -1.27109 0)
(1.04838 -1.32571 0)
(1.22147 -1.40792 0)
(1.52558 -1.50273 0)
(1.76345 -1.29893 0)
(1.85998 -0.629649 0)
(1.8259 0.306688 0)
(1.57273 1.24963 0)
(1.11194 1.96929 0)
(0.0243076 -1.0112 0)
(0.0623969 -1.12823 0)
(0.0970082 -1.09805 0)
(0.136121 -1.09732 0)
(0.176725 -1.10501 0)
(0.218647 -1.11507 0)
(0.262531 -1.12764 0)
(0.30902 -1.14325 0)
(0.358969 -1.16247 0)
(0.413433 -1.18612 0)
(0.473632 -1.21526 0)
(0.541413 -1.25118 0)
(0.619071 -1.29548 0)
(0.712311 -1.34957 0)
(0.820057 -1.42118 0)
(0.982742 -1.52197 0)
(1.13226 -1.68324 0)
(1.46551 -1.82539 0)
(1.55696 -1.47188 0)
(1.53045 -0.678934 0)
(1.54129 0.383268 0)
(1.3388 1.5798 0)
(0.840417 2.45505 0)
(0.0228972 -1.05906 0)
(0.0586354 -1.16415 0)
(0.0911441 -1.1379 0)
(0.127917 -1.13962 0)
(0.165825 -1.14866 0)
(0.204771 -1.16043 0)
(0.245267 -1.17527 0)
(0.287802 -1.1938 0)
(0.333039 -1.2168 0)
(0.381741 -1.24534 0)
(0.434744 -1.28085 0)
(0.493289 -1.32516 0)
(0.559025 -1.38074 0)
(0.635278 -1.451 0)
(0.723328 -1.5467 0)
(0.847318 -1.68567 0)
(0.954012 -1.90085 0)
(1.21635 -2.02696 0)
(1.07573 -1.40031 0)
(0.960054 -0.457503 0)
(1.01199 0.54711 0)
(0.911042 1.86756 0)
(0.50558 2.85466 0)
(0.0212111 -1.10389 0)
(0.0543309 -1.19732 0)
(0.0845159 -1.1752 0)
(0.118551 -1.17887 0)
(0.153351 -1.18891 0)
(0.188847 -1.20194 0)
(0.225391 -1.21842 0)
(0.263284 -1.23903 0)
(0.302917 -1.26461 0)
(0.344679 -1.29638 0)
(0.388874 -1.33586 0)
(0.435914 -1.38512 0)
(0.486313 -1.44695 0)
(0.540977 -1.52574 0)
(0.600604 -1.63282 0)
(0.672545 -1.78996 0)
(0.729145 -2.01198 0)
(0.823679 -2.07461 0)
(0.619028 -1.23203 0)
(0.560208 -0.223402 0)
(0.54422 0.67566 0)
(0.492715 2.10382 0)
(0.319947 2.99039 0)
(0.0193356 -1.14524 0)
(0.0496512 -1.22765 0)
(0.0773505 -1.2096 0)
(0.10837 -1.21472 0)
(0.139794 -1.22536 0)
(0.171548 -1.23918 0)
(0.203825 -1.25662 0)
(0.236734 -1.27835 0)
(0.270374 -1.30519 0)
(0.30475 -1.3383 0)
(0.339612 -1.3791 0)
(0.374543 -1.42945 0)
(0.408837 -1.49193 0)
(0.441434 -1.57063 0)
(0.47095 -1.67572 0)
(0.495946 -1.82824 0)
(0.498554 -2.02585 0)
(0.441942 -2.03652 0)
(0.368017 -1.22308 0)
(0.276898 -0.0493531 0)
(0.173585 0.674717 0)
(0.215067 2.20975 0)
(0.318279 2.8158 0)
(0.0173584 -1.18283 0)
(0.0447669 -1.25509 0)
(0.0698811 -1.24087 0)
(0.0977329 -1.24697 0)
(0.125657 -1.25785 0)
(0.153571 -1.27197 0)
(0.181519 -1.28969 0)
(0.209442 -1.31162 0)
(0.237194 -1.33848 0)
(0.264448 -1.37123 0)
(0.29053 -1.41097 0)
(0.314379 -1.45908 0)
(0.334335 -1.5174 0)
(0.347994 -1.5888 0)
(0.352155 -1.6808 0)
(0.340418 -1.81069 0)
(0.293845 -1.96944 0)
(0.16254 -1.94867 0)
(0.115365 -1.11608 0)
(0.0777086 0.114704 0)
(-0.0944542 0.594356 0)
(0.0725906 2.11004 0)
(0.356473 2.52733 0)
(0.015354 -1.21651 0)
(0.0398331 -1.27966 0)
(0.0623309 -1.26891 0)
(0.0869722 -1.27554 0)
(0.11141 -1.28635 0)
(0.13556 -1.30032 0)
(0.159333 -1.31775 0)
(0.182536 -1.33913 0)
(0.204878 -1.36501 0)
(0.225807 -1.39607 0)
(0.244412 -1.43304 0)
(0.25932 -1.47669 0)
(0.268452 -1.52793 0)
(0.268978 -1.58791 0)
(0.257026 -1.66082 0)
(0.223745 -1.75898 0)
(0.150999 -1.87061 0)
(-0.00107921 -1.82091 0)
(-0.075367 -1.06862 0)
(0.0317835 0.222735 0)
(-0.156053 0.685379 0)
(0.0037653 1.77826 0)
(0.322253 2.30549 0)
(0.0133831 -1.24627 0)
(0.034981 -1.30141 0)
(0.0548941 -1.29369 0)
(0.0763785 -1.3005 0)
(0.0974652 -1.31098 0)
(0.118041 -1.32445 0)
(0.137934 -1.34115 0)
(0.156876 -1.36141 0)
(0.174501 -1.38562 0)
(0.190166 -1.41418 0)
(0.202898 -1.44744 0)
(0.211324 -1.48563 0)
(0.213504 -1.52882 0)
(0.207065 -1.57669 0)
(0.188649 -1.63063 0)
(0.150611 -1.69844 0)
(0.0789108 -1.76741 0)
(-0.0424545 -1.69987 0)
(-0.146936 -1.14919 0)
(0.0973429 0.059333 0)
(-0.0921106 0.890064 0)
(-0.00782388 1.45593 0)
(0.25076 2.13742 0)
(0.0114945 -1.27218 0)
(0.0303168 -1.32047 0)
(0.0477249 -1.31528 0)
(0.066185 -1.322 0)
(0.0841327 -1.33194 0)
(0.101396 -1.34467 0)
(0.117777 -1.36035 0)
(0.133004 -1.37916 0)
(0.146676 -1.40133 0)
(0.15816 -1.42706 0)
(0.166577 -1.45637 0)
(0.170765 -1.48913 0)
(0.169266 -1.52481 0)
(0.160492 -1.56217 0)
(0.142323 -1.60093 0)
(0.109994 -1.64594 0)
(0.0542216 -1.68782 0)
(-0.019349 -1.60973 0)
(-0.0840946 -1.14743 0)
(0.113688 -0.135719 0)
(0.0105554 0.946848 0)
(0.085443 1.31647 0)
(0.230309 1.99398 0)
(0.00972574 -1.29445 0)
(0.0259222 -1.33697 0)
(0.0409436 -1.33385 0)
(0.0565683 -1.34027 0)
(0.0716164 -1.34954 0)
(0.0858698 -1.36137 0)
(0.0991316 -1.37585 0)
(0.111161 -1.39307 0)
(0.121575 -1.41311 0)
(0.129809 -1.43602 0)
(0.135151 -1.46167 0)
(0.136775 -1.4897 0)
(0.133828 -1.5193 0)
(0.125509 -1.54886 0)
(0.111071 -1.57724 0)
(0.0875493 -1.60805 0)
(0.0516318 -1.63624 0)
(0.0138377 -1.56739 0)
(0.00667422 -1.18422 0)
(0.148111 -0.259131 0)
(0.169952 0.889957 0)
(0.351874 1.25769 0)
(0.269728 1.92613 0)
(0.00811197 -1.31333 0)
(0.0218653 -1.35111 0)
(0.0346406 -1.34958 0)
(0.0476467 -1.35557 0)
(0.0600428 -1.36409 0)
(0.0715922 -1.37494 0)
(0.0821098 -1.38816 0)
(0.091394 -1.40375 0)
(0.0991087 -1.42173 0)
(0.104782 -1.44205 0)
(0.107871 -1.46453 0)
(0.107919 -1.48876 0)
(0.104626 -1.51393 0)
(0.097981 -1.53847 0)
(0.0880589 -1.56098 0)
(0.0737248 -1.5848 0)
(0.0555236 -1.60858 0)
(0.0432664 -1.55821 0)
(0.0761569 -1.23679 0)
(0.187118 -0.425396 0)
(0.355623 0.756329 0)
(0.661672 1.1996 0)
(0.291321 2.18793 0)
(0.00669594 -1.32901 0)
(0.0182109 -1.36299 0)
(0.0288764 -1.3626 0)
(0.0394892 -1.36808 0)
(0.049477 -1.37583 0)
(0.0586113 -1.38567 0)
(0.0667131 -1.39763 0)
(0.0736249 -1.41167 0)
(0.0790542 -1.42775 0)
(0.0826226 -1.44581 0)
(0.0839378 -1.46568 0)
(0.0828552 -1.48703 0)
(0.0795204 -1.50921 0)
(0.0743793 -1.53103 0)
(0.0681097 -1.55134 0)
(0.060796 -1.5735 0)
(0.0544077 -1.59988 0)
(0.0566203 -1.57345 0)
(0.106754 -1.30729 0)
(0.168521 -0.588326 0)
(0.397024 0.599538 0)
(0.650662 1.10983 0)
(0.233535 2.68034 0)
(0.00552405 -1.34182 0)
(0.0150207 -1.37272 0)
(0.0236944 -1.37308 0)
(0.0321594 -1.378 0)
(0.0399683 -1.38493 0)
(0.0469345 -1.39377 0)
(0.0528951 -1.40449 0)
(0.0577213 -1.41706 0)
(0.061149 -1.43144 0)
(0.0628723 -1.44755 0)
(0.062622 -1.46533 0)
(0.0604213 -1.48457 0)
(0.0566995 -1.5048 0)
(0.0520932 -1.52538 0)
(0.0472959 -1.54574 0)
(0.0430156 -1.56933 0)
(0.0408028 -1.6015 0)
(0.0457866 -1.59722 0)
(0.0916587 -1.37402 0)
(0.116117 -0.701544 0)
(0.295891 0.484633 0)
(0.340655 1.06712 0)
(0.190788 2.88928 0)
(0.00463442 -1.3525 0)
(0.0123558 -1.38074 0)
(0.0191503 -1.38152 0)
(0.0257353 -1.38582 0)
(0.0316062 -1.39192 0)
(0.0366394 -1.39971 0)
(0.0406893 -1.40919 0)
(0.0436431 -1.42032 0)
(0.0452495 -1.43308 0)
(0.0452378 -1.44745 0)
(0.0434053 -1.46338 0)
(0.0399216 -1.48092 0)
(0.0352184 -1.49977 0)
(0.0298868 -1.51972 0)
(0.0245123 -1.54075 0)
(0.0199077 -1.56632 0)
(0.0170119 -1.60395 0)
(0.0194544 -1.6176 0)
(0.0540944 -1.42573 0)
(0.0549827 -0.777771 0)
(0.22842 0.42054 0)
(0.138503 1.06614 0)
(0.164037 2.90271 0)
(0.00403482 -1.36182 0)
(0.0102565 -1.38758 0)
(0.0153373 -1.38849 0)
(0.020313 -1.39215 0)
(0.024501 -1.39745 0)
(0.0278887 -1.4042 0)
(0.0302671 -1.41243 0)
(0.0315439 -1.42213 0)
(0.0314729 -1.43326 0)
(0.0298137 -1.4459 0)
(0.0262883 -1.46008 0)
(0.0211975 -1.47588 0)
(0.0149809 -1.49341 0)
(0.00784503 -1.51275 0)
(0.000226712 -1.53432 0)
(-0.00709501 -1.56111 0)
(-0.0136106 -1.60188 0)
(-0.0142744 -1.62973 0)
(0.00931167 -1.4681 0)
(0.00452949 -0.857884 0)
(0.242548 0.355618 0)
(0.0902722 1.08486 0)
(0.137877 2.86651 0)
(0.00366688 -1.36945 0)
(0.00869222 -1.39266 0)
(0.0123214 -1.39349 0)
(0.0159791 -1.39661 0)
(0.0187628 -1.40113 0)
(0.020829 -1.40689 0)
(0.0218508 -1.41391 0)
(0.0217373 -1.42218 0)
(0.020185 -1.43171 0)
(0.0169554 -1.44256 0)
(0.0118293 -1.45486 0)
(0.00486719 -1.46876 0)
(-0.00361015 -1.48475 0)
(-0.0135141 -1.50324 0)
(-0.0245817 -1.52494 0)
(-0.0359483 -1.55244 0)
(-0.046658 -1.59518 0)
(-0.0505255 -1.63743 0)
(-0.0367302 -1.51893 0)
(-0.0316806 -0.962867 0)
(0.325667 0.244725 0)
(0.120028 1.08379 0)
(0.100589 2.82619 0)
(0.00344114 -1.37424 0)
(0.00760231 -1.39479 0)
(0.0100861 -1.39531 0)
(0.0127663 -1.39794 0)
(0.0145559 -1.4016 0)
(0.0156825 -1.40633 0)
(0.0157448 -1.41208 0)
(0.0146126 -1.41885 0)
(0.0119705 -1.42661 0)
(0.00745504 -1.43542 0)
(0.000773785 -1.44552 0)
(-0.00814652 -1.45717 0)
(-0.0193315 -1.47095 0)
(-0.0330628 -1.48769 0)
(-0.0493021 -1.50842 0)
(-0.0672671 -1.53553 0)
(-0.085857 -1.57868 0)
(-0.101265 -1.63585 0)
(-0.11011 -1.57428 0)
(-0.0845438 -1.09124 0)
(0.317003 0.0373403 0)
(0.084908 1.47639 0)
(0.0517008 2.80674 0)
(0.0033024 -1.37808 0)
(0.00691529 -1.39576 0)
(0.00864976 -1.39581 0)
(0.0107871 -1.39784 0)
(0.0120462 -1.40061 0)
(0.012664 -1.40419 0)
(0.0122884 -1.40852 0)
(0.0107104 -1.41354 0)
(0.00753772 -1.4192 0)
(0.00229685 -1.42551 0)
(-0.00541379 -1.43262 0)
(-0.0159091 -1.44086 0)
(-0.0296528 -1.4509 0)
(-0.0474904 -1.46375 0)
(-0.0699485 -1.48061 0)
(-0.0969695 -1.50368 0)
(-0.128552 -1.54193 0)
(-0.164321 -1.60588 0)
(-0.206297 -1.59894 0)
(-0.201637 -1.20804 0)
(0.0406456 -0.213612 0)
(-0.00426562 1.58984 0)
(-0.009338 2.79943 0)
(0.00318482 -1.38662 0)
(0.00643557 -1.40129 0)
(0.00774998 -1.40096 0)
(0.00962495 -1.40258 0)
(0.010739 -1.40468 0)
(0.0113238 -1.40731 0)
(0.0110843 -1.41036 0)
(0.00975631 -1.41376 0)
(0.00690612 -1.41738 0)
(0.00199837 -1.42109 0)
(-0.00550313 -1.42483 0)
(-0.0161775 -1.42869 0)
(-0.030962 -1.43312 0)
(-0.0513561 -1.43896 0)
(-0.0788159 -1.44729 0)
(-0.114943 -1.45979 0)
(-0.162137 -1.48293 0)
(-0.223003 -1.53328 0)
(-0.308236 -1.56257 0)
(-0.365139 -1.2693 0)
(-0.227007 -0.361361 0)
(-0.158307 1.50952 0)
(-0.0739919 2.76624 0)
(0.00286903 -1.40002 0)
(0.00554874 -1.41146 0)
(0.00639039 -1.41118 0)
(0.00797554 -1.41275 0)
(0.00905468 -1.41464 0)
(0.00979787 -1.41686 0)
(0.00998939 -1.41931 0)
(0.00934967 -1.42186 0)
(0.00749118 -1.42436 0)
(0.00396897 -1.42648 0)
(-0.00167309 -1.42785 0)
(-0.0100865 -1.42806 0)
(-0.0225345 -1.42701 0)
(-0.0410431 -1.42497 0)
(-0.0678834 -1.42238 0)
(-0.106368 -1.41959 0)
(-0.162505 -1.41844 0)
(-0.243867 -1.43003 0)
(-0.37668 -1.44871 0)
(-0.531382 -1.24354 0)
(-0.493826 -0.310208 0)
(-0.321978 1.42222 0)
(-0.13362 2.67029 0)
(0.00208903 -1.4062 0)
(0.00378876 -1.41405 0)
(0.00400594 -1.41419 0)
(0.00495174 -1.41564 0)