/*--------------------------------*- C++ -*----------------------------------*\
| =========                 |                                                 |
| \\      /  F ield         | OpenFOAM: The Open Source CFD Toolbox           |
|  \\    /   O peration     | Version:  2206                                  |
|   \\  /    A nd           | Website:  www.openfoam.com                      |
|    \\/     M anipulation  |                                                 |
\*---------------------------------------------------------------------------*/
FoamFile
{
    version     2.0;
    format      ascii;
    arch        "LSB;label=32;scalar=64";
    class       surfaceScalarField;
    location    "0.625";
    object      phi;
}
// * * * * * * * * * * * * * * * * * * * * * * * * * * * * * * * * * * * * * //

dimensions      [0 3 -1 0 0 0 0];

oriented        oriented;

internalField   nonuniform List<scalar> 
4432
(
-3.55327e-06
3.55327e-06
-3.52651e-06
-2.67585e-08
-2.68616e-06
-8.40343e-07
-2.76282e-06
7.66675e-08
-3.79431e-06
1.03149e-06
-5.33878e-06
1.54448e-06
-6.92988e-06
1.5911e-06
-8.30642e-06
1.37654e-06
-9.38615e-06
1.07973e-06
-1.01781e-05
7.91944e-07
-1.07238e-05
5.45664e-07
-1.10611e-05
3.37309e-07
-1.12052e-05
1.4414e-07
-1.11477e-05
-5.75507e-08
-1.0863e-05
-2.84726e-07
-1.02953e-05
-5.67631e-07
-9.32581e-06
-9.69536e-07
-7.70762e-06
-1.61819e-06
-4.88461e-06
-2.82301e-06
-7.08451e-07
-4.17617e-06
6.35714e-06
-7.06559e-06
1.3315e-05
-6.95789e-06
1.3315e-05
-3.81623e-06
7.3695e-06
-4.10139e-06
2.58389e-07
-3.73332e-06
-1.20842e-06
-4.15154e-06
4.94877e-07
-5.37951e-06
2.25947e-06
-6.95877e-06
3.12373e-06
-8.45425e-06
3.08658e-06
-9.63159e-06
2.55388e-06
-1.04259e-05
1.87401e-06
-1.08513e-05
1.21734e-06
-1.09351e-05
6.29568e-07
-1.07028e-05
1.04924e-07
-1.01483e-05
-4.10264e-07
-9.2889e-06
-9.1698e-07
-8.1289e-06
-1.44472e-06
-6.65455e-06
-2.04196e-06
-4.83808e-06
-2.786e-06
-2.66546e-06
-3.79081e-06
-3.85851e-07
-5.10262e-06
2.91964e-06
-7.48166e-06
5.51973e-06
-9.66568e-06
4.65162e-06
-6.08978e-06
1.79667e-05
-4.04804e-06
1.14175e-05
-5.14625e-06
1.35661e-06
-5.55158e-06
-8.03087e-07
-6.40091e-06
1.3442e-06
-7.76137e-06
3.61993e-06
-9.24972e-06
4.61208e-06
-1.05721e-05
4.40896e-06
-1.15938e-05
3.57555e-06
-1.22886e-05
2.56881e-06
-1.26775e-05
1.6062e-06
-1.27836e-05
7.35681e-07
-1.26105e-05
-6.81619e-08
-1.2194e-05
-8.2675e-07
-1.15379e-05
-1.57306e-06
-1.06715e-05
-2.31115e-06
-9.64554e-06
-3.06795e-06
-8.53377e-06
-3.89777e-06
-7.49938e-06
-4.8252e-06
-6.65602e-06
-5.94598e-06
-6.62728e-06
-7.51039e-06
-7.50249e-06
-8.79047e-06
-8.5373e-06
-5.05497e-06
9.42936e-06
-4.53836e-06
1.59559e-05
-6.94272e-06
3.76096e-06
-8.38719e-06
6.4139e-07
-9.75273e-06
2.70974e-06
-1.12834e-05
5.15056e-06
-1.27168e-05
6.04556e-06
-1.38875e-05
5.57966e-06
-1.47295e-05
4.41751e-06
-1.52386e-05
3.07795e-06
-1.54366e-05
1.80415e-06
-1.53585e-05
6.57662e-07
-1.5048e-05
-3.78743e-07
-1.45351e-05
-1.33963e-06
-1.38807e-05
-2.22744e-06
-1.31243e-05
-3.06755e-06
-1.23092e-05
-3.883e-06
-1.15237e-05
-4.68332e-06
-1.09114e-05
-5.43747e-06
-1.07848e-05
-6.07256e-06
-1.1681e-05
-6.6142e-06
-1.31103e-05
-7.36123e-06
-1.09797e-05
-7.1855e-06
-1.55038e-06
-6.41681e-06
2.23727e-05
-1.0508e-05
7.85219e-06
-1.26339e-05
2.76721e-06
-1.42288e-05
4.30472e-06
-1.58461e-05
6.76783e-06
-1.7157e-05
7.35646e-06
-1.80705e-05
6.49318e-06
-1.86139e-05
4.9609e-06
-1.88414e-05
3.30539e-06
-1.88137e-05
1.77648e-06
-1.8554e-05
3.97909e-07
-1.80437e-05
-8.89029e-07
-1.72976e-05
-2.08573e-06
-1.63299e-05
-3.19514e-06
-1.51961e-05
-4.20131e-06
-1.3958e-05
-5.1211e-06
-1.26821e-05
-5.95927e-06
-1.14144e-05
-6.7051e-06
-1.01922e-05
-7.29479e-06
-9.17338e-06
-7.63302e-06
-8.35921e-06
-8.1754e-06
-5.80669e-06
-9.73802e-06
-7.35706e-06
-7.61086e-06
2.99836e-05
-1.42699e-05
1.45112e-05
-1.74944e-05
5.99173e-06
-1.928e-05
6.09037e-06
-2.12393e-05
8.72708e-06
-2.30012e-05
9.11838e-06
-2.42938e-05
7.7858e-06
-2.50413e-05
5.70834e-06
-2.51542e-05
3.41836e-06
-2.46369e-05
1.25916e-06
-2.36583e-05
-5.80741e-07
-2.25018e-05
-2.04551e-06
-2.11684e-05
-3.41913e-06
-1.96726e-05
-4.69095e-06
-1.81162e-05
-5.75762e-06
-1.64818e-05
-6.75554e-06
-1.46684e-05
-7.77273e-06
-1.26594e-05
-8.71406e-06
-1.04582e-05
-9.49597e-06
-8.05796e-06
-1.00333e-05
-5.46692e-06
-1.07664e-05
-2.46408e-06
-1.27409e-05
-9.82115e-06
-4.90685e-06
3.48904e-05
-1.39493e-05
2.35537e-05
-2.01807e-05
1.2223e-05
-2.39762e-05
9.88596e-06
-2.64941e-05
1.1245e-05
-2.79496e-05
1.05739e-05
-2.86063e-05
8.44248e-06
-2.87057e-05
5.80776e-06
-2.84735e-05
3.18608e-06
-2.82552e-05
1.04087e-06
-2.802e-05
-8.15944e-07
-2.74942e-05
-2.57131e-06
-2.65967e-05
-4.31665e-06
-2.55466e-05
-5.74102e-06
-2.45131e-05
-6.79109e-06
-2.32898e-05
-7.97883e-06
-2.16544e-05
-9.40816e-06
-1.95899e-05
-1.07785e-05
-1.71275e-05
-1.19584e-05
-1.41066e-05
-1.30542e-05
-1.00896e-05
-1.47834e-05
-4.89412e-06
-1.79364e-05
-1.47153e-05
1.17147e-06
3.37189e-05
-4.59272e-06
2.93179e-05
-1.35978e-05
2.12281e-05
-2.09544e-05
1.72425e-05
-2.47243e-05
1.50148e-05
-2.72621e-05
1.31117e-05
-2.96655e-05
1.08459e-05
-3.17107e-05
7.85297e-06
-3.30352e-05
4.51052e-06
-3.35569e-05
1.56259e-06
-3.33096e-05
-1.06322e-06
-3.28459e-05
-3.03505e-06
-3.22825e-05
-4.88006e-06
-3.12912e-05
-6.73227e-06
-2.94144e-05
-8.66789e-06
-2.66271e-05
-1.07661e-05
-2.33394e-05
-1.26959e-05
-1.98172e-05
-1.43007e-05
-1.60542e-05
-1.57214e-05
-1.23895e-05
-1.67188e-05
-9.9109e-06
-1.7262e-05
-8.37081e-06
-1.94764e-05
-2.30861e-05
-7.07333e-05
7.07333e-05
-0.000144164
7.34307e-05
-0.000201319
5.71545e-05
-0.000214543
1.32243e-05
-0.000140952
-7.35909e-05
-4.14326e-06
-0.000136809
0.000101401
-0.000105544
0.000134451
-3.30501e-05
0.000161603
-2.71526e-05
0.000196719
-3.51155e-05
0.000215086
-1.83675e-05
0.000234821
-1.9735e-05
0.000285869
-5.10476e-05
0.000352318
-6.64488e-05
0.000431762
-7.94444e-05
0.000435831
-4.06887e-06
0.000316786
0.000119045
0.000128205
0.000188581
0.000128205
-0.000117745
0.000188478
-0.000251766
0.000207451
-0.000262127
6.75156e-05
-0.000149747
-9.91548e-05
1.43182e-05
-0.000237657
0.000156442
-0.000278933
0.00029023
-0.000239332
0.000328445
-7.12648e-05
0.000272346
2.89465e-05
0.000184746
5.24847e-05
0.000110265
5.61131e-05
0.000110569
-2.00388e-05
0.000236454
-0.000176932
0.000389688
-0.000219683
0.000534453
-0.00022421
0.00063031
-9.99261e-05
0.000544415
0.00020494
0.000271794
0.000461202
0.000399998
-0.00011628
0.000304758
-0.000149589
0.00024076
-6.23886e-06
-7.58341e-05
0.000145146
-0.00025054
0.000198187
-0.000290698
0.000223891
-0.000304637
0.000282922
-0.000298362
0.000302563
-9.09058e-05
9.86467e-05
0.000232862
-8.18928e-05
0.000233024
-8.0948e-05
5.51683e-05
-8.97211e-06
-9.20147e-05
0.000176982
-0.000362887
0.000338042
-0.000380743
0.000460748
-0.000346915
0.000445413
-8.45906e-05
0.000285064
0.000365288
0.000125685
0.000620582
0.000525683
-2.55962e-05
0.000330355
0.000140625
7.4539e-05
0.000230253
-0.000165463
0.000235075
-0.000255361
0.000236456
-0.000292079
0.000251145
-0.000319326
0.000267451
-0.000314668
0.000245363
-6.88175e-05
0.000105736
0.000372489
-9.04056e-05
0.000429166
-7.46494e-05
3.9412e-05
6.72107e-05
-0.000233875
0.000185788
-0.000481464
0.000279415
-0.00047437
0.000365774
-0.000433274
0.000327659
-4.6475e-05
0.000232961
0.000459985
8.59325e-05
0.00076761
0.000611616
2.92932e-05
0.000301061
0.000175833
-7.20004e-05
0.000220646
-0.000210276
0.000219586
-0.000254301
0.000227143
-0.000299636
0.000234499
-0.000326682
0.00019968
-0.000279849
0.000173634
-4.27711e-05
2.01948e-05
0.000525928
-9.17847e-05
0.000541146
-3.12683e-05
-2.11044e-05
0.000126778
-0.000391921
0.000167908
-0.000522594
0.000199619
-0.000506081
0.00023855
-0.000472206
0.000302067
-0.000109992
0.000230955
0.000531097
8.40303e-05
0.000914535
0.000695646
0.000113523
0.000187538
0.00018653
-0.000145007
0.000187945
-0.000211691
0.000204602
-0.000270958
0.00021372
-0.000308755
0.000163024
-0.000275986
0.000139592
-0.000256416
4.7506e-05
4.93143e-05
-1.52422e-05
0.000588676
-3.96349e-05
0.000565538
7.97726e-05
-0.000140512
0.000158723
-0.000470871
0.000166901
-0.000530772
0.000172501
-0.000511681
0.000174856
-0.000474562
0.000201509
-0.000136645
0.000185721
0.000546885
9.33538e-05
0.0010069
0.000789
0.000166944
2.05943e-05
0.000155074
-0.000133137
0.000173801
-0.000230419
0.000193563
-0.00029072
0.000127355
-0.000242547
6.43415e-05
-0.000212972
-9.77705e-06
-0.000182298
-6.87879e-05
0.000108325
-2.48906e-05
0.000544779
8.53656e-05
0.000455282
0.000163227
-0.000218373
0.000197923
-0.000505566
0.000213878
-0.000546728
0.000222264
-0.000520066
0.000182526
-0.000434823
0.000126153
-8.02723e-05
0.0001322
0.000540838
0.000102448
0.00103665
0.000891448
9.59094e-05
-7.53152e-05
0.000151844
-0.000189071
0.000188437
-0.000267012
0.000109491
-0.000211774
3.16911e-05
-0.000164747
-5.13384e-05
-0.000129942
-0.000123224
-0.000110413
-0.00011037
9.54715e-05
-1.89656e-05
0.000453374
0.000224397
0.00021192
0.000258554
-0.000252531
0.000302843
-0.000549856
0.000337274
-0.000581158
0.000366136
-0.000548929
0.000253819
-0.000322506
0.00012095
5.25966e-05
9.97983e-05
0.00056199
8.64144e-05
0.00105004
0.000977862
4.84311e-07
3.32346e-05
-2.14696e-06
3.19492e-05
-8.7376e-06
2.78188e-05
-1.48853e-05
2.33903e-05
-2.01011e-05
2.02306e-05
-2.4451e-05
1.74616e-05
-2.74833e-05
1.38782e-05
-2.91214e-05
9.49108e-06
-2.93111e-05
4.70029e-06
-2.70488e-05
-6.99787e-07
-2.10453e-05
-7.06664e-06
-1.42406e-05
-9.83983e-06
-7.61511e-06
-1.15055e-05
-7.3363e-07
-1.36138e-05
6.99676e-06
-1.63983e-05
1.493e-05
-1.86993e-05
2.18705e-05
-1.96364e-05
2.71983e-05
-1.96286e-05
3.06188e-05
-1.9142e-05
3.0323e-05
-1.6423e-05
2.21901e-05
-9.12916e-06
-9.46957e-07
3.66063e-06
-4.55145e-06
-1.94816e-05
-7.19247e-06
4.04271e-05
-1.50022e-05
3.97589e-05
-2.58824e-05
3.8699e-05
-3.39781e-05
3.1486e-05
-3.94412e-05
2.56937e-05
-4.15424e-05
1.95628e-05
-3.97467e-05
1.20825e-05
-3.36191e-05
3.36348e-06
-1.83854e-05
-1.05335e-05
1.80485e-05
-3.71336e-05
3.74928e-05
-2.6511e-05
4.99198e-05
-2.22668e-05
5.82377e-05
-1.98234e-05
6.40821e-05
-1.94581e-05
6.7691e-05
-2.00073e-05
6.94391e-05
-2.04474e-05
6.99556e-05
-2.01529e-05
6.95203e-05
-1.91933e-05
6.72502e-05
-1.68718e-05
6.20812e-05
-1.1254e-05
5.34972e-05
-5.45225e-07
3.71558e-05
2.0002e-05
3.91685e-05
-6.56409e-06
-1.83802e-05
5.88074e-05
-2.75789e-05
4.89575e-05
-3.21864e-05
4.33065e-05
-3.29491e-05
3.22487e-05
-4.06156e-05
3.33602e-05
-3.99193e-05
1.88664e-05
-2.90897e-05
1.25292e-06
-8.57988e-06
-1.71464e-05
1.36688e-05
-3.27821e-05
2.22962e-05
-4.57609e-05
3.63557e-05
-4.05704e-05
4.71708e-05
-3.30819e-05
5.45585e-05
-2.72111e-05
5.90234e-05
-2.3923e-05
6.11282e-05
-2.21121e-05
6.17235e-05
-2.10429e-05
6.17184e-05
-2.01479e-05
6.1704e-05
-1.9179e-05
6.24597e-05
-1.76276e-05
6.57805e-05
-1.45748e-05
7.46129e-05
-9.37764e-06
9.60968e-05
-1.48183e-06
1.61133e-05
0.000119152
-1.64088e-05
7.52161e-05
-2.45577e-05
5.71063e-05
-2.28923e-05
4.1641e-05
-1.88566e-05
2.82129e-05
-2.98923e-06
1.74927e-05
1.52034e-05
6.73702e-07
3.67473e-05
-2.02909e-05
5.40883e-05
-3.44874e-05
6.37978e-05
-4.24916e-05
6.26263e-05
-4.45894e-05
6.19835e-05
-3.99276e-05
6.21061e-05
-3.32044e-05
6.25415e-05
-2.76465e-05
6.27732e-05
-2.41547e-05
6.29446e-05
-2.22836e-05
6.33298e-05
-2.14281e-05
6.42176e-05
-2.10358e-05
6.5681e-05
-2.06425e-05
6.79025e-05
-1.98491e-05
7.17028e-05
-1.8375e-05
7.85506e-05
-1.62255e-05
9.20523e-05
-1.49835e-05
-1.1935e-05
0.000120101
-4.06415e-06
7.92802e-05
-4.93723e-06
5.79793e-05
2.92152e-06
3.37822e-05
1.79635e-05
1.31709e-05
3.77518e-05
-2.29567e-06
5.54196e-05
-1.69941e-05
6.46817e-05
-2.9553e-05
6.7671e-05
-3.74767e-05
6.5772e-05
-4.05927e-05
6.09863e-05
-3.98037e-05
5.72343e-05
-3.61756e-05
5.56215e-05
-3.15917e-05
5.55629e-05
-2.75879e-05
5.63371e-05
-2.49289e-05
5.76401e-05
-2.35867e-05
5.93587e-05
-2.31468e-05
6.14926e-05
-2.31698e-05
6.4176e-05
-2.33259e-05
6.77227e-05
-2.33957e-05
7.2653e-05
-2.33053e-05
7.96157e-05
-2.31882e-05
8.85554e-05
-2.39232e-05
-2.53713e-05
0.000101992
6.7989e-06
7.24812e-05
9.88847e-06
5.48896e-05
1.91981e-05
2.44725e-05
3.05092e-05
1.85974e-06
4.18157e-05
-1.36022e-05
5.02413e-05
-2.54198e-05
5.47509e-05
-3.40626e-05
5.6145e-05
-3.88708e-05
5.54894e-05
-3.99372e-05
5.38814e-05
-3.81957e-05
5.25683e-05
-3.48624e-05
5.21719e-05
-3.11954e-05
5.27365e-05
-2.81526e-05
5.40303e-05
-2.62227e-05
5.58586e-05
-2.54151e-05
5.81554e-05
-2.54436e-05
6.09405e-05
-2.59549e-05
6.42753e-05
-2.66606e-05
6.82716e-05
-2.7392e-05
7.31004e-05
-2.81341e-05
7.89644e-05
-2.90521e-05
8.56284e-05
-3.05872e-05
-3.30437e-05
9.33008e-05
7.80726e-06
6.46739e-05
1.37565e-05
4.89403e-05
1.92994e-05
1.89296e-05
2.55141e-05
-4.35499e-06
3.34823e-05
-2.15705e-05
4.13469e-05
-3.32845e-05
4.69561e-05
-3.96719e-05
4.97189e-05
-4.16337e-05
5.02429e-05
-4.04611e-05
4.96065e-05
-3.75594e-05
4.88956e-05
-3.41515e-05
4.8832e-05
-3.11318e-05
4.96859e-05
-2.90065e-05
5.13905e-05
-2.79275e-05
5.37559e-05
-2.77806e-05
5.66155e-05
-2.83032e-05
5.98721e-05
-2.92115e-05
6.35018e-05
-3.02902e-05
6.75429e-05
-3.14331e-05
7.20621e-05
-3.26533e-05
7.70892e-05
-3.40792e-05
8.24578e-05
-3.59559e-05
-3.84988e-05
8.7913e-05
2.78683e-06
6.1887e-05
7.92246e-06
4.38047e-05
1.25605e-05
1.42915e-05
1.97333e-05
-1.15278e-05
2.86954e-05
-3.05327e-05
3.65764e-05
-4.11656e-05
4.17117e-05
-4.48072e-05
4.40415e-05
-4.39636e-05
4.44992e-05
-4.09189e-05
4.42463e-05
-3.73065e-05
4.42061e-05
-3.41113e-05
4.4893e-05
-3.18189e-05
4.64525e-05
-3.05661e-05
4.87876e-05
-3.02627e-05
5.17023e-05
-3.06953e-05
5.50111e-05
-3.16121e-05
5.85906e-05
-3.27909e-05
6.23835e-05
-3.40829e-05
6.63791e-05
-3.54288e-05
7.05806e-05
-3.68547e-05
7.4958e-05
-3.84566e-05
7.93797e-05
-4.03775e-05
-4.27363e-05
8.36173e-05
-1.68706e-06
6.35741e-05
1.43459e-06
4.06831e-05
7.62751e-06
8.09854e-06
1.66017e-05
-2.0502e-05
2.56965e-05
-3.96276e-05
3.26622e-05
-4.81313e-05
3.6759e-05
-4.89041e-05
3.85006e-05
-4.57052e-05
3.89779e-05
-4.13962e-05
3.92379e-05
-3.75667e-05
3.99758e-05
-3.48493e-05
4.14947e-05
-3.33378e-05
4.38005e-05
-3.28721e-05
4.67337e-05
-3.31959e-05
5.0083e-05
-3.40446e-05
5.3665e-05
-3.51941e-05
5.73605e-05
-3.64863e-05
6.11153e-05
-3.78376e-05
6.49185e-05
-3.9232e-05
6.87708e-05
-4.0707e-05
7.26478e-05
-4.23336e-05
7.64656e-05
-4.41952e-05
-4.63486e-05
8.00778e-05
-2.23934e-06
6.58134e-05
-1.12004e-07
3.85558e-05
6.36771e-06
1.61883e-06
1.5377e-05
-2.95112e-05
2.36835e-05
-4.79341e-05
2.94063e-05
-5.38542e-05
3.24083e-05
-5.19062e-05
3.36262e-05
-4.6923e-05
3.42245e-05
-4.19946e-05
3.50715e-05
-3.84137e-05
3.66016e-05
-3.63794e-05
3.88956e-05
-3.56318e-05
4.18244e-05
-3.58009e-05
4.51773e-05
-3.6549e-05
4.87514e-05
-3.76187e-05
5.23984e-05
-3.88411e-05
5.6038e-05
-4.01258e-05
5.96447e-05
-4.14443e-05
6.32228e-05
-4.28101e-05
6.67778e-05
-4.42619e-05
7.02922e-05
-4.5848e-05
7.37098e-05
-4.76128e-05
-4.95771e-05
7.69384e-05
-7.31624e-07
6.65451e-05
9.25195e-07
3.6899e-05
7.0383e-06
-4.49426e-06
1.53308e-05
-3.78038e-05
2.23571e-05
-5.49604e-05
2.66515e-05
-5.81486e-05
2.86275e-05
-5.38822e-05
2.95106e-05
-4.78061e-05
3.03976e-05
-4.28816e-05
3.18908e-05
-3.9907e-05
3.41458e-05
-3.86343e-05
3.705e-05
-3.85361e-05
4.03849e-05
-3.91359e-05
4.39328e-05
-4.00969e-05
4.75313e-05
-4.12173e-05
5.10882e-05
-4.2398e-05
5.45707e-05
-4.36083e-05
5.79829e-05
-4.48564e-05
6.13411e-05
-4.61683e-05
6.4654e-05
-4.75749e-05
6.79092e-05
-4.91031e-05
7.10676e-05
-5.07711e-05
-5.25792e-05
7.40697e-05
1.00711e-06
6.5538e-05
2.63703e-06
3.52691e-05
8.57427e-06
-1.04315e-05
1.5864e-05
-4.50935e-05
2.14038e-05
-6.05003e-05
2.43067e-05
-6.10515e-05
2.54795e-05
-5.5055e-05
2.62688e-05
-4.85954e-05
2.75679e-05
-4.41808e-05
2.96697e-05
-4.20087e-05
3.24806e-05
-4.14453e-05
3.57565e-05
-4.1812e-05
3.92508e-05
-4.26303e-05
4.27836e-05
-4.36298e-05
4.62552e-05
-4.46889e-05
4.96316e-05
-4.57744e-05
5.29191e-05
-4.68957e-05
5.61389e-05
-4.80763e-05
5.931e-05
-4.93394e-05
6.24377e-05
-5.07026e-05
6.551e-05
-5.21754e-05
6.84982e-05
-5.37593e-05
-5.54447e-05
7.13636e-05
1.84682e-06
6.36912e-05
4.24379e-06
3.28722e-05
1.01698e-05
-1.63575e-05
1.64793e-05
-5.1403e-05
2.05892e-05
-6.46102e-05
2.23232e-05
-6.27854e-05
2.29912e-05
-5.5723e-05
2.38994e-05
-4.95035e-05
2.56455e-05
-4.59268e-05
2.82234e-05
-4.45866e-05
3.136e-05
-4.45818e-05
3.4757e-05
-4.5209e-05
3.81986e-05
-4.60721e-05
4.15704e-05
-4.70016e-05
4.48369e-05
-4.79554e-05
4.80078e-05
-4.89453e-05
5.11091e-05
-4.9997e-05
5.41647e-05
-5.11319e-05
5.71878e-05
-5.23625e-05
6.01787e-05
-5.36934e-05
6.31262e-05
-5.51229e-05
6.60107e-05
-5.66439e-05
-5.82426e-05
6.88087e-05
2.02758e-06
6.16637e-05
5.4765e-06
2.94233e-05
1.14906e-05
-2.23715e-05
1.69034e-05
-5.68159e-05
1.97999e-05
-6.75067e-05
2.06993e-05
-6.36847e-05
2.11693e-05
-5.61929e-05
2.23351e-05
-5.06693e-05
2.44689e-05
-4.80606e-05
2.73289e-05
-4.74465e-05
3.05534e-05
-4.78064e-05
3.38645e-05
-4.85201e-05
3.71143e-05
-4.93219e-05
4.02577e-05
-5.01452e-05
4.33065e-05
-5.10042e-05
4.62907e-05
-5.19296e-05
4.92378e-05
-5.29442e-05
5.21644e-05
-5.40585e-05
5.50761e-05
-5.52742e-05
5.79701e-05
-5.65874e-05
6.08383e-05
-5.7991e-05
6.36689e-05
-5.94745e-05
-6.1023e-05
6.64491e-05
1.96412e-06
5.96996e-05
6.34857e-06
2.50389e-05
1.24336e-05
-2.84566e-05
1.70669e-05
-6.14491e-05
1.90381e-05
-6.94779e-05
1.94525e-05
-6.40991e-05
1.99685e-05
-5.67088e-05
2.14363e-05
-5.2137e-05
2.38324e-05
-5.04566e-05
2.67726e-05
-5.03866e-05
2.98957e-05
-5.09294e-05
3.29938e-05
-5.16183e-05
3.59963e-05
-5.23245e-05
3.89102e-05
-5.30592e-05
4.17684e-05
-5.38624e-05
4.46009e-05
-5.47621e-05
4.74258e-05
-5.57691e-05
5.02505e-05
-5.68832e-05
5.30756e-05
-5.80992e-05
5.58986e-05
-5.94103e-05
5.87151e-05
-6.08076e-05
6.15201e-05
-6.22794e-05
-6.38116e-05
6.43087e-05
1.9421e-06
5.77575e-05
7.01199e-06
1.9969e-05
1.30805e-05
-3.45251e-05
1.70537e-05
-6.54223e-05
1.83721e-05
-7.07963e-05
1.85816e-05
-6.43085e-05
1.92834e-05
-5.74106e-05
2.10155e-05
-5.38691e-05
2.35275e-05
-5.29685e-05
2.63878e-05
-5.32468e-05
2.92986e-05
-5.38403e-05
3.21397e-05
-5.44593e-05
3.49022e-05
-5.50871e-05
3.76184e-05
-5.57756e-05
4.03207e-05
-5.65647e-05
4.30279e-05
-5.74694e-05
4.57475e-05
-5.84888e-05
4.84808e-05
-5.96165e-05
5.12272e-05
-6.08456e-05
5.39861e-05
-6.21691e-05
5.67569e-05
-6.35784e-05
5.95389e-05
-6.50614e-05
-6.66069e-05
6.23343e-05
2.13683e-06
5.56207e-05
7.68168e-06
1.44241e-05
1.36234e-05
-4.04668e-05
1.70167e-05
-6.88155e-05
1.78748e-05
-7.16544e-05
1.80478e-05
-6.44815e-05
1.8972e-05
-5.83347e-05
2.08816e-05
-5.57785e-05
2.33806e-05
-5.54674e-05
2.60631e-05
-5.59292e-05
2.87235e-05
-5.65006e-05
3.13184e-05
-5.70542e-05
3.38742e-05
-5.76431e-05
3.64256e-05
-5.8327e-05
3.89929e-05
-5.91321e-05
4.15835e-05
-6.006e-05
4.4198e-05
-6.11033e-05
4.68359e-05
-6.22544e-05
4.94972e-05
-6.3507e-05
5.21836e-05
-6.48555e-05
5.48969e-05
-6.62917e-05
5.76394e-05
-6.78038e-05
-6.93881e-05
6.04206e-05
2.60356e-06
5.30171e-05
8.53344e-06
8.49423e-06
1.42566e-05
-4.61899e-05
1.70867e-05
-7.16457e-05
1.75791e-05
-7.21467e-05
1.77815e-05
-6.46838e-05
1.88941e-05
-5.94472e-05
2.088e-05
-5.77643e-05
2.32716e-05
-5.7859e-05
2.57326e-05
-5.83901e-05
2.81487e-05
-5.89167e-05
3.05285e-05
-5.94341e-05
3.29088e-05
-6.00234e-05
3.53137e-05
-6.0732e-05
3.77514e-05
-6.15699e-05
4.02217e-05
-6.25303e-05
4.27232e-05
-6.36048e-05
4.52557e-05
-6.47868e-05
4.78201e-05
-6.60714e-05
5.04188e-05
-6.74542e-05
5.30554e-05
-6.89282e-05
5.57345e-05
-7.04829e-05
-7.21276e-05
5.8474e-05
3.30069e-06
4.97164e-05
9.64367e-06
2.15127e-06
1.50797e-05
-5.16259e-05
1.7311e-05
-7.3877e-05
1.74623e-05
-7.2298e-05
1.7699e-05
-6.49205e-05
1.89352e-05
-6.06833e-05
2.09052e-05
-5.97342e-05
2.31291e-05
-6.00828e-05
2.53591e-05
-6.062e-05
2.75543e-05
-6.11118e-05
2.97484e-05
-6.16281e-05
3.19723e-05
-6.22474e-05
3.42376e-05
-6.29973e-05
3.65439e-05
-6.38763e-05
3.88886e-05
-6.4875e-05
4.12701e-05
-6.59863e-05
4.36887e-05
-6.72055e-05
4.61452e-05
-6.85278e-05
4.86423e-05
-6.99514e-05
5.11848e-05
-7.14707e-05
5.37798e-05
-7.30778e-05
-7.48005e-05
5.64527e-05
4.11697e-06
4.55994e-05
1.09699e-05
-4.70163e-06
1.60607e-05
-5.67167e-05
1.76381e-05
-7.54543e-05
1.74551e-05
-7.2115e-05
1.77158e-05
-6.51811e-05
1.9009e-05
-6.19765e-05
2.08903e-05
-6.16154e-05
2.29142e-05
-6.21067e-05
2.49225e-05
-6.26282e-05
2.69228e-05
-6.3112e-05
2.8953e-05
-6.36583e-05
3.10318e-05
-6.43262e-05
3.31606e-05
-6.51262e-05
3.53353e-05
-6.60511e-05
3.75529e-05
-6.70928e-05
3.98119e-05
-6.82454e-05
4.21121e-05
-6.95058e-05
4.44533e-05
-7.08689e-05
4.68394e-05
-7.23374e-05
4.92762e-05
-7.39076e-05
5.17731e-05
-7.55747e-05
-7.73872e-05
5.43598e-05
4.97076e-06
4.06287e-05
1.23914e-05
-1.21222e-05
1.70649e-05
-6.13902e-05
1.79497e-05
-7.6339e-05
1.74667e-05
-7.16319e-05
1.77538e-05
-6.54681e-05
1.90499e-05
-6.32725e-05
2.07928e-05
-6.33583e-05
2.26075e-05
-6.39213e-05
2.44139e-05
-6.44346e-05
2.6244e-05
-6.4942e-05
2.81271e-05
-6.55414e-05
3.00695e-05
-6.62687e-05
3.20668e-05
-6.71235e-05
3.41135e-05
-6.8098e-05
3.62066e-05
-6.91859e-05
3.83434e-05
-7.03822e-05
4.05233e-05
-7.16856e-05
4.27451e-05
-7.30908e-05
4.50152e-05
-7.46074e-05
4.73395e-05
-7.62319e-05
4.97299e-05
-7.79652e-05
-7.98706e-05
5.22133e-05
5.81805e-06
3.48107e-05
1.37533e-05
-2.00574e-05
1.79118e-05
-6.55487e-05
1.81114e-05
-7.65385e-05
1.74114e-05
-7.09319e-05
1.77457e-05
-6.58023e-05
1.90063e-05
-6.45331e-05
2.05854e-05
-6.49373e-05
2.22009e-05
-6.55368e-05
2.38317e-05
-6.60654e-05
2.55145e-05
-6.66248e-05
2.72651e-05
-6.72921e-05
2.90806e-05
-6.80842e-05
3.09537e-05
-6.89967e-05
3.28782e-05
-7.00226e-05
3.48504e-05
-7.11581e-05
3.68663e-05
-7.23981e-05
3.89249e-05
-7.37443e-05
4.10258e-05
-7.51916e-05
4.31766e-05
-7.67582e-05
4.53835e-05
-7.84387e-05
4.76607e-05
-8.02425e-05
-8.22355e-05
5.00256e-05
6.63813e-06
2.81725e-05
1.49159e-05
-2.83351e-05
1.84353e-05
-6.90679e-05
1.80181e-05
-7.61213e-05
1.72278e-05
-7.01415e-05
1.76387e-05
-6.62132e-05
1.88401e-05
-6.57344e-05
2.02525e-05
-6.63497e-05
2.16933e-05
-6.69776e-05
2.31776e-05
-6.75497e-05
2.47341e-05
-6.81813e-05
2.63658e-05
-6.89239e-05
2.80644e-05
-6.97828e-05
2.98211e-05
-7.07534e-05
3.16292e-05
-7.18308e-05
3.34838e-05
-7.30127e-05
3.53805e-05
-7.42947e-05
3.73178e-05
-7.56816e-05
3.92969e-05
-7.71708e-05
4.13246e-05
-7.87859e-05
4.34077e-05
-8.05217e-05
4.55613e-05
-8.23961e-05
-8.44682e-05
4.77938e-05
7.42258e-06
2.075e-05
1.57602e-05
-3.66727e-05
1.85181e-05
-7.18257e-05
1.76191e-05
-7.52223e-05
1.68845e-05
-6.94068e-05
1.73956e-05
-6.67243e-05
1.85265e-05
-6.68653e-05
1.9788e-05
-6.76112e-05
2.10867e-05
-6.82764e-05
2.24527e-05
-6.89156e-05
2.39014e-05
-6.96301e-05
2.54269e-05
-7.04494e-05
2.70181e-05
-7.13741e-05
2.86658e-05
-7.24013e-05
3.03631e-05
-7.35281e-05
3.21038e-05
-7.47534e-05
3.3884e-05
-7.60749e-05
3.57013e-05
-7.74989e-05
3.75585e-05
-7.90281e-05
3.94574e-05
-8.06848e-05
4.14067e-05
-8.2471e-05
4.34168e-05
-8.44062e-05
-8.65468e-05
4.54954e-05
8.14287e-06
1.26072e-05
1.61877e-05
-4.47175e-05
1.81084e-05
-7.37463e-05
1.69197e-05
-7.40335e-05
1.63748e-05
-6.88619e-05
1.69948e-05
-6.73442e-05
1.80549e-05
-6.79255e-05
1.91937e-05
-6.87501e-05
2.03845e-05
-6.94671e-05
2.16565e-05
-7.01877e-05
2.30132e-05
-7.09868e-05
2.44436e-05
-7.18798e-05
2.59364e-05
-7.28669e-05
2.74825e-05
-7.39475e-05
2.90749e-05
-7.51205e-05
3.07072e-05
-7.63857e-05
3.2376e-05
-7.77436e-05
3.40774e-05
-7.92004e-05
3.58142e-05
-8.07649e-05
3.75798e-05
-8.24504e-05
3.93835e-05
-8.42746e-05
4.12223e-05
-8.62451e-05
-8.84315e-05
4.31071e-05
8.69697e-06
3.91022e-06
1.61208e-05
-5.21412e-05
1.72201e-05
-7.48456e-05
1.59684e-05
-7.27818e-05
1.57083e-05
-6.86017e-05
1.64293e-05
-6.80652e-05
1.7428e-05
-6.89241e-05
1.8477e-05
-6.97991e-05
1.959e-05
-7.05801e-05
2.07876e-05
-7.13854e-05
2.20652e-05
-7.22643e-05
2.34106e-05
-7.32252e-05
2.48135e-05
-7.427e-05
2.62658e-05
-7.53999e-05
2.77609e-05
-7.66156e-05
2.9293e-05
-7.79178e-05
3.08589e-05
-7.93094e-05
3.24532e-05
-8.07948e-05
3.40753e-05
-8.23869e-05
3.57114e-05
-8.40864e-05
3.73641e-05
-8.59273e-05
3.90138e-05
-8.78949e-05
-9.00792e-05
4.06615e-05
8.98725e-06
-5.077e-06
1.55365e-05
-5.86904e-05
1.59335e-05
-7.52426e-05
1.48399e-05
-7.16881e-05
1.49041e-05
-6.86658e-05
1.57071e-05
-6.88681e-05
1.66594e-05
-6.98764e-05
1.76496e-05
-7.07893e-05
1.87079e-05
-7.16384e-05
1.98456e-05
-7.25231e-05
2.10543e-05
-7.34731e-05
2.23236e-05
-7.44946e-05
2.36451e-05
-7.55915e-05
2.5012e-05
-7.67669e-05
2.64191e-05
-7.80227e-05
2.78617e-05
-7.93605e-05
2.93366e-05
-8.07842e-05
3.08376e-05
-8.22958e-05
3.23589e-05
-8.39082e-05
3.38839e-05
-8.56113e-05
3.54025e-05
-8.74459e-05
3.68836e-05
-8.9376e-05
-9.14943e-05
3.82987e-05
8.975e-06
-1.4052e-05
1.44906e-05
-6.4206e-05
1.43826e-05
-7.51345e-05
1.3615e-05
-7.09205e-05
1.39871e-05
-6.90379e-05
1.48483e-05
-6.97292e-05
1.5771e-05
-7.07991e-05
1.6726e-05
-7.17442e-05
1.7745e-05
-7.26575e-05
1.88324e-05
-7.36104e-05
1.99801e-05
-7.46209e-05
2.11807e-05
-7.56952e-05
2.24283e-05
-7.68392e-05
2.37183e-05
-7.80569e-05
2.50472e-05
-7.93516e-05
2.64121e-05
-8.07254e-05
2.78097e-05
-8.21817e-05
2.92347e-05
-8.37208e-05
3.06778e-05
-8.53512e-05
3.21258e-05
-8.70593e-05
3.35583e-05
-8.88784e-05
3.49455e-05
-9.07633e-05
-9.27779e-05
3.62291e-05
8.6747e-06
-2.27267e-05
1.31031e-05
-6.86344e-05
1.27194e-05
-7.47508e-05
1.23624e-05
-7.05635e-05
1.29854e-05
-6.96608e-05
1.38823e-05
-7.0626e-05
1.47887e-05
-7.17054e-05
1.57225e-05
-7.2678e-05
1.671e-05
-7.36451e-05
1.77523e-05
-7.46528e-05
1.88443e-05
-7.57129e-05
1.99816e-05
-7.68327e-05
2.11614e-05
-7.8019e-05
2.23815e-05
-7.9277e-05
2.36406e-05
-8.06106e-05
2.49375e-05
-8.20222e-05
2.62699e-05
-8.35141e-05
2.76351e-05
-8.5086e-05
2.90252e-05
-8.67413e-05
3.04353e-05
-8.84694e-05
3.18462e-05
-9.02894e-05
3.32425e-05
-9.21596e-05
-9.41025e-05
3.45671e-05
8.14578e-06
-3.08725e-05
1.15267e-05
-7.20153e-05
1.10769e-05
-7.4301e-05
1.11297e-05
-7.06162e-05
1.19282e-05
-7.04593e-05
1.28413e-05
-7.15391e-05
1.3738e-05
-7.2602e-05
1.46553e-05
-7.35953e-05
1.56128e-05
-7.46026e-05
1.66116e-05
-7.56515e-05
1.765e-05
-7.67513e-05
1.87271e-05
-7.79098e-05
1.98427e-05
-7.91346e-05
2.09971e-05
-8.04314e-05
2.21909e-05
-8.18043e-05
2.34247e-05
-8.3256e-05
2.46984e-05
-8.47877e-05
2.60128e-05
-8.64004e-05
2.73661e-05
-8.80947e-05
2.87633e-05
-8.98667e-05
3.01981e-05
-9.17242e-05
3.16742e-05
-9.36357e-05
-9.55996e-05
3.31713e-05
7.4694e-06
-3.83419e-05
9.9078e-06
-7.44537e-05
9.54629e-06
-7.39395e-05
9.94351e-06
-7.10134e-05
1.08431e-05
-7.13588e-05
1.17562e-05
-7.24521e-05
1.2642e-05
-7.34878e-05
1.35398e-05
-7.44931e-05
1.4464e-05
-7.55267e-05
1.54174e-05
-7.66049e-05
1.64016e-05
-7.77355e-05
1.74187e-05
-7.89268e-05
1.84706e-05
-8.01864e-05
1.95594e-05
-8.15201e-05
2.06872e-05
-8.2932e-05
2.18562e-05
-8.44249e-05
2.30687e-05
-8.60003e-05
2.43293e-05
-8.7661e-05
2.56435e-05
-8.94089e-05
2.70241e-05
-9.12473e-05
2.84792e-05
-9.31793e-05
3.00297e-05
-9.51862e-05
-9.72657e-05
3.16958e-05
6.69974e-06
-4.50416e-05
8.35434e-06
-7.61083e-05
8.1719e-06
-7.37571e-05
8.81642e-06
-7.1658e-05
9.75465e-06
-7.2297e-05
1.06525e-05
-7.33499e-05
1.15196e-05
-7.43549e-05
1.23896e-05
-7.5363e-05
1.32739e-05
-7.6411e-05
1.41774e-05
-7.75084e-05
1.51045e-05
-7.86625e-05
1.6059e-05
-7.98813e-05
1.70443e-05
-8.11717e-05
1.80635e-05
-8.25393e-05
1.91194e-05
-8.39879e-05
2.0215e-05
-8.55205e-05
2.13549e-05
-8.71402e-05
2.2546e-05
-8.88521e-05
2.37984e-05
-9.06614e-05
2.51278e-05
-9.25767e-05
2.65502e-05
-9.46018e-05
2.80959e-05
-9.67318e-05
-9.89709e-05
2.98011e-05
5.90265e-06
-5.09442e-05
6.93672e-06
-7.71424e-05
6.96283e-06
-7.37833e-05
7.7533e-06
-7.24485e-05
8.68244e-06
-7.32261e-05
9.54985e-06
-7.42173e-05
1.03861e-05
-7.5191e-05
1.12171e-05
-7.61939e-05
1.2053e-05
-7.72468e-05
1.29006e-05
-7.83559e-05
1.37654e-05
-7.95274e-05
1.46524e-05
-8.07683e-05
1.55654e-05
-8.20848e-05
1.65074e-05
-8.34814e-05
1.74815e-05
-8.4962e-05
1.84908e-05
-8.65298e-05
1.95405e-05
-8.81899e-05
2.06376e-05
-8.99491e-05
2.17922e-05
-9.1816e-05
2.30173e-05
-9.38019e-05
2.4328e-05
-9.59125e-05
2.57523e-05
-9.81561e-05
-0.000100536
2.73179e-05
5.12664e-06
-5.60709e-05
5.68648e-06
-7.77023e-05
5.90609e-06
-7.4003e-05
6.75494e-06
-7.32973e-05
7.6404e-06
-7.41116e-05
8.46179e-06
-7.50386e-05
9.25291e-06
-7.59821e-05
1.0033e-05
-7.69739e-05
1.08115e-05
-7.80253e-05
1.15958e-05
-7.91403e-05
1.23921e-05
-8.03238e-05
1.32051e-05
-8.15814e-05
1.40382e-05
-8.2918e-05
1.48941e-05
-8.43373e-05
1.57751e-05
-8.58429e-05
1.66839e-05
-8.74387e-05
1.76245e-05
-8.91304e-05
1.86017e-05
-9.09263e-05
1.96217e-05
-9.2836e-05
2.06905e-05
-9.48708e-05
2.18159e-05
-9.70379e-05
2.30131e-05
-9.93532e-05
-0.000101816
2.42927e-05
4.40183e-06
-6.04728e-05
4.61935e-06
-7.79198e-05
4.97994e-06
-7.43636e-05
5.81901e-06
-7.41363e-05
6.63664e-06
-7.49291e-05
7.39687e-06
-7.57988e-05
8.1287e-06
-7.67139e-05
8.84628e-06
-7.76916e-05
9.5583e-06
-7.87374e-05
1.02719e-05
-7.98539e-05
1.09926e-05
-8.10445e-05
1.17244e-05
-8.23133e-05
1.247e-05
-8.36636e-05
1.32312e-05
-8.50985e-05
1.40094e-05
-8.6621e-05
1.48059e-05
-8.82353e-05
1.56225e-05
-8.99471e-05
1.64603e-05
-9.17641e-05
1.73196e-05
-9.36953e-05
1.81984e-05
-9.57495e-05
1.90951e-05
-9.79345e-05
2.00073e-05
-0.000100265
-0.00010274
2.09318e-05
3.73989e-06
-6.42127e-05
3.72477e-06
-7.79046e-05
4.16299e-06
-7.48017e-05
4.94146e-06
-7.49146e-05
5.67403e-06
-7.56616e-05
6.35931e-06
-7.64841e-05
7.01894e-06
-7.73736e-05
7.66342e-06
-7.83362e-05
8.30022e-06
-7.93743e-05
8.93542e-06
-8.04891e-05
9.57354e-06
-8.16826e-05
1.02175e-05
-8.29572e-05
1.08691e-05
-8.43152e-05
1.15293e-05
-8.57586e-05
1.21983e-05
-8.72901e-05
1.28761e-05
-8.89131e-05
1.35615e-05
-9.06325e-05
1.42518e-05
-9.24544e-05
1.49417e-05
-9.43852e-05
1.56229e-05
-9.64307e-05
1.62851e-05
-9.85967e-05
1.69121e-05
-0.000100892
-0.000103319
1.74904e-05
3.13865e-06
-6.73512e-05
2.97071e-06
-7.77366e-05
3.43131e-06
-7.52622e-05
4.11533e-06
-7.55986e-05
4.75059e-06
-7.62969e-05
5.34899e-06
-7.70826e-05
5.92516e-06
-7.79499e-05
6.48693e-06
-7.88981e-05
7.04022e-06
-7.99277e-05
7.58977e-06
-8.10387e-05
8.13887e-06
-8.22317e-05
8.6895e-06
-8.35078e-05
9.24262e-06
-8.48683e-05
9.79843e-06
-8.63145e-05
1.03563e-05
-8.7848e-05