/*--------------------------------*- C++ -*----------------------------------*\
| =========                 |                                                 |
| \\      /  F ield         | OpenFOAM: The Open Source CFD Toolbox           |
|  \\    /   O peration     | Version:  2206                                  |
|   \\  /    A nd           | Website:  www.openfoam.com                      |
|    \\/     M anipulation  |                                                 |
\*---------------------------------------------------------------------------*/
FoamFile
{
    version     2.0;
    format      ascii;
    arch        "LSB;label=32;scalar=64";
    class       surfaceScalarField;
    location    "0.675";
    object      alphaPhi0.water;
}
// * * * * * * * * * * * * * * * * * * * * * * * * * * * * * * * * * * * * * //

dimensions      [0 3 -1 0 0 0 0];

oriented        oriented;

internalField   nonuniform List<scalar> 
4432
(
-1.03223e-06
1.03223e-06
-1.19806e-06
1.65837e-07
-6.22532e-07
-5.75527e-07
3.42778e-07
-9.65308e-07
1.41771e-06
-1.07493e-06
2.37845e-06
-9.60731e-07
3.10013e-06
-7.21678e-07
3.54773e-06
-4.47598e-07
3.74906e-06
-2.01335e-07
3.76205e-06
-1.29858e-08
3.64539e-06
1.16664e-07
3.44091e-06
2.04482e-07
3.16073e-06
2.80177e-07
2.78126e-06
3.79469e-07
2.25097e-06
5.30291e-07
1.50769e-06
7.43282e-07
5.07432e-07
1.00026e-06
-7.38555e-07
1.24599e-06
-2.13972e-06
1.40116e-06
-3.25969e-06
1.11997e-06
-3.37313e-06
1.13433e-07
-2.27029e-06
-1.10284e-06
-2.27029e-06
-1.1413e-06
2.17353e-06
-1.30611e-06
3.30654e-07
-7.54527e-07
-1.1271e-06
2.15546e-07
-1.93538e-06
1.32491e-06
-2.18429e-06
2.33352e-06
-1.96933e-06
3.11177e-06
-1.49992e-06
3.61685e-06
-9.5267e-07
3.87465e-06
-4.59136e-07
3.95201e-06
-9.03405e-08
3.92193e-06
1.46748e-07
3.84406e-06
2.82353e-07
3.75404e-06
3.70202e-07
3.66797e-06
4.65538e-07
3.57604e-06
6.22227e-07
3.4277e-06
8.91622e-07
3.14337e-06
1.2846e-06
2.6452e-06
1.74415e-06
1.9582e-06
2.08817e-06
1.17203e-06
1.90614e-06
1.84146e-07
1.10132e-06
-4.24897e-07
-4.93794e-07
-2.69518e-06
-1.20591e-06
3.37944e-06
-1.47403e-06
5.98783e-07
-9.86353e-07
-1.61477e-06
-4.73606e-08
-2.87436e-06
1.07919e-06
-3.31084e-06
2.13027e-06
-3.0204e-06
2.95607e-06
-2.32572e-06
3.51317e-06
-1.50977e-06
3.81873e-06
-7.64699e-07
3.92726e-06
-1.98864e-07
3.91179e-06
1.62221e-07
3.83322e-06
3.60929e-07
3.73963e-06
4.63795e-07
3.66246e-06
5.42709e-07
3.62764e-06
6.57041e-07
3.66902e-06
8.50246e-07
3.79907e-06
1.15456e-06
3.97485e-06
1.56837e-06
4.05692e-06
2.0061e-06
3.73769e-06
2.22537e-06
2.89634e-06
1.94267e-06
1.62118e-06
7.81363e-07
-1.074e-06
-1.32699e-06
4.70643e-06
-1.75227e-06
1.02407e-06
-1.48686e-06
-1.88018e-06
-7.09142e-07
-3.65208e-06
5.0481e-07
-4.52479e-06
1.71477e-06
-4.23036e-06
2.63945e-06
-3.2504e-06
3.26692e-06
-2.13723e-06
3.6442e-06
-1.14198e-06
3.82726e-06
-3.81925e-07
3.87839e-06
1.11094e-07
3.8562e-06
3.83126e-07
3.81042e-06
5.09576e-07
3.77292e-06
5.80213e-07
3.76123e-06
6.68731e-07
3.78894e-06
8.22534e-07
3.87945e-06
1.06404e-06
4.05126e-06
1.39657e-06
4.24924e-06
1.80812e-06
4.23803e-06
2.23659e-06
3.65902e-06
2.52168e-06
2.15286e-06
2.28752e-06
1.07886e-06
-1.52885e-06
6.23529e-06
-2.34127e-06
1.83649e-06
-2.68536e-06
-1.53608e-06
-2.23724e-06
-4.1002e-06
-8.52252e-07
-5.90978e-06
7.65079e-07
-5.84769e-06
1.9885e-06
-4.47382e-06
2.77349e-06
-2.92221e-06
3.26182e-06
-1.63031e-06
3.55471e-06
-6.74806e-07
3.71497e-06
-4.9171e-08
3.79474e-06
3.03361e-07
3.83836e-06
4.6596e-07
3.88095e-06
5.3762e-07
3.9404e-06
6.0929e-07
4.01754e-06
7.45388e-07
4.10038e-06
9.8121e-07
4.17198e-06
1.32497e-06
4.20989e-06
1.77022e-06
4.12797e-06
2.31851e-06
3.65635e-06
2.99329e-06
2.33517e-06
3.6087e-06
3.41404e-06
-1.83055e-06
8.06584e-06
-3.31731e-06
3.32326e-06
-4.44434e-06
-4.09057e-07
-4.3431e-06
-4.20144e-06
-2.92201e-06
-7.33086e-06
-9.65179e-07
-7.80452e-06
7.56067e-07
-6.19506e-06
1.87683e-06
-4.04298e-06
2.58146e-06
-2.33494e-06
3.04493e-06
-1.13827e-06
3.36255e-06
-3.66794e-07
3.5936e-06
7.23141e-08
3.77029e-06
2.8927e-07
3.92969e-06
3.78229e-07
4.09397e-06
4.45009e-07
4.26836e-06
5.70994e-07
4.43497e-06
8.14602e-07
4.54797e-06
1.21197e-06
4.53413e-06
1.78405e-06
4.30709e-06
2.54555e-06
3.71221e-06
3.58817e-06
2.38553e-06
4.93539e-06
5.79956e-06
-2.0163e-06
1.00821e-05
-4.0558e-06
5.36276e-06
-5.49452e-06
1.02967e-06
-5.62722e-06
-4.06873e-06
-4.6169e-06
-8.34118e-06
-2.87242e-06
-9.54899e-06
-9.60963e-07
-8.10652e-06
5.52002e-07
-5.55594e-06
1.57573e-06
-3.35867e-06
2.27932e-06
-1.84185e-06
2.80176e-06
-8.89237e-07
3.21827e-06
-3.44191e-07
3.57514e-06
-6.76005e-08
3.89769e-06
5.56764e-08
4.21114e-06
1.31566e-07
4.52592e-06
2.56218e-07
4.83325e-06
5.07269e-07
5.09759e-06
9.47632e-07
5.2356e-06
1.64603e-06
5.14402e-06
2.63714e-06
4.63801e-06
4.09418e-06
3.5063e-06
6.06709e-06
9.30586e-06
-1.80703e-06
1.18892e-05
-3.52796e-06
7.08369e-06
-4.39717e-06
1.89888e-06
-4.66166e-06
-3.80424e-06
-4.44242e-06
-8.56043e-06
-3.6247e-06
-1.03667e-05
-2.25145e-06
-9.47976e-06
-7.44326e-07
-7.06306e-06
4.985e-07
-4.60149e-06
1.42469e-06
-2.76804e-06
2.13394e-06
-1.5985e-06
2.72425e-06
-9.34493e-07
3.25778e-06
-6.01133e-07
3.76601e-06
-4.52553e-07
4.26692e-06
-3.69344e-07
4.77227e-06
-2.49135e-07
5.27907e-06
4.7182e-10
5.75928e-06
4.67422e-07
6.12762e-06
1.27769e-06
6.23107e-06
2.5337e-06
5.70635e-06
4.61889e-06
4.22832e-06
7.54513e-06
1.35342e-05
6.27214e-06
-6.26983e-06
-2.21853e-06
8.49297e-06
-1.62292e-05
1.40123e-05
-1.99761e-05
3.78461e-06
-1.51813e-05
-9.90386e-08
-8.92114e-06
-8.61864e-07
-1.21958e-05
-1.08418e-06
-6.47166e-06
-9.6785e-06
8.66169e-06
-1.75886e-05
1.41405e-05
-4.58258e-06
4.23091e-06
1.43532e-05
-1.14633e-05
1.98575e-05
-1.65064e-05
4.9823e-06
-6.23638e-06
-1.03308e-05
-9.77686e-06
3.15313e-06
-4.23459e-05
3.19326e-05
-6.34675e-05
2.04546e-05
-4.31949e-05
-2.269e-05
-4.43196e-05
-1.71033e-06
-4.55719e-06
-9.68998e-06
1.64742e-05
-5.84303e-06
7.80957e-06
-3.56519e-06
1.26431e-06
-2.45454e-06
-1.41189e-06
-1.35328e-06
-2.13648e-06
3.21254e-06
-5.7904e-06
4.55897e-05
-5.03662e-05
7.07176e-05
-4.37818e-05
7.19635e-05
-5.83788e-06
5.26959e-05
3.42324e-05
1.83696e-05
5.51469e-05
-9.5106e-06
3.65703e-05
-2.41095e-05
3.53648e-07
-4.1419e-05
1.6024e-05
-6.29629e-05
5.27515e-05
-6.70653e-05
2.39381e-05
-4.03277e-05
-4.96151e-05
-8.5089e-05
-6.99433e-06
2.43512e-06
-5.06981e-06
1.4448e-05
-1.32457e-06
3.83269e-06
1.66802e-07
-4.58705e-07
1.272e-06
-2.74873e-06
6.8083e-06
-7.89381e-06
5.37379e-05
-4.74071e-05
8.27221e-05
-7.55653e-05
9.25316e-05
-5.3227e-05
9.21215e-05
-5.08036e-06
8.05318e-05
4.61615e-05
5.39809e-05
8.20384e-05
1.23463e-05
8.03434e-05
-1.88873e-05
2.95152e-05
-4.39092e-05
3.23345e-05
-5.69833e-05
6.46924e-05
-5.44409e-05
2.16111e-05
-3.84318e-05
-6.64901e-05
-0.000123999
-6.10846e-06
8.52757e-06
-1.04833e-06
7.93996e-06
9.01124e-07
1.66383e-06
2.34835e-06
-2.13758e-06
6.93606e-06
-7.55585e-06
4.80074e-05
-4.70804e-05
8.21457e-05
-7.82241e-05
9.30315e-05
-8.52425e-05
9.65968e-05
-5.54602e-05
9.72286e-05
-4.5007e-06
9.13224e-05
5.24019e-05
7.4302e-05
9.93971e-05
3.91755e-05
0.000115826
-4.56899e-06
8.16435e-05
-2.93524e-05
5.43941e-05
-3.33693e-05
5.87514e-05
-3.5224e-05
2.2995e-05
-3.37445e-05
-6.79945e-05
-0.000157999
-9.34072e-07
9.41496e-06
1.60444e-06
3.11229e-06
3.12378e-06
-8.52617e-08
6.2013e-06
-5.4345e-06
4.05533e-05
-4.17832e-05
7.23698e-05
-7.79438e-05
8.22267e-05
-8.47179e-05
7.99084e-05
-7.85157e-05
5.03525e-05
-1.47914e-05
5.17903e-05
-5.9602e-07
7.98996e-05
2.36569e-05
8.13822e-05
9.82527e-05
5.73256e-05
0.00014028
1.40808e-05
0.000125285
-1.52845e-05
9.75394e-05
-2.04485e-05
8.61159e-05
-2.45275e-05
2.6577e-05
-2.50988e-05
-6.80058e-05
-0.000183257
1.55451e-06
8.33786e-06
2.83877e-06
1.69012e-06
5.48411e-06
-2.96693e-06
3.46648e-05
-3.48075e-05
6.78682e-05
-7.40076e-05
7.78284e-05
-8.61622e-05
7.13281e-05
-7.64967e-05
1.33558e-05
-1.57711e-05
1.33122e-06
-5.78231e-07
7.47318e-07
-2.47006e-09
2.10836e-05
1.29447e-06
7.21848e-05
4.03569e-05
6.67011e-05
0.000146161
3.50892e-05
0.000157194
3.07505e-06
0.000129933
-7.54267e-06
0.000106724
-1.08487e-05
2.93862e-05
-1.27447e-05
-6.71455e-05
-0.000196053
2.82297e-06
5.19479e-06
9.19835e-06
-6.27955e-06
3.79133e-05
-3.27025e-05
6.55216e-05
-6.15205e-05
7.55229e-05
-8.22232e-05
6.91401e-05
-7.80166e-05
1.55533e-05
-1.69316e-05
6.14409e-07
-7.34308e-07
5.90896e-08
-1.56563e-08
5.15698e-08
-1.57966e-10
1.33614e-06
1.95337e-08
2.89408e-05
4.79752e-06
6.61246e-05
0.000106736
5.14075e-05
0.000172171
2.52875e-05
0.000156437
9.49704e-06
0.000113775
3.45041e-06
3.49359e-05
2.16545e-06
-8.20139e-05
-0.000193852
2.1069e-05
-1.8014e-05
4.43776e-05
-3.18811e-05
6.37147e-05
-5.00135e-05
7.07893e-05
-6.69235e-05
6.48562e-05
-7.38812e-05
1.66857e-05
-2.12025e-05
7.48992e-07
-9.16049e-07
2.05452e-08
-6.39084e-10
-2.36722e-10
3.02354e-10
-7.34186e-09
-5.10302e-11
3.88676e-09
3.08897e-09
4.46834e-06
3.23199e-07
5.53065e-05
4.12512e-05
6.18291e-05
0.00016596
4.63264e-05
0.000172447
2.63076e-05
0.000116442
1.74682e-05
4.3367e-05
1.13189e-05
-7.58378e-05
-0.0001825
1.71582e-06
1.01734e-05
1.41242e-06
7.38708e-06
1.69585e-06
1.61545e-06
1.76455e-06
-3.87293e-06
-2.1411e-08
-6.77448e-06
-2.58548e-06
-7.80254e-06
-3.71086e-06
-8.35417e-06
-2.92917e-06
-7.84455e-06
-1.13505e-06
-6.39547e-06
8.83336e-07
-4.78636e-06
2.76682e-06
-3.48195e-06
4.49977e-06
-2.66743e-06
6.14551e-06
-2.24687e-06
7.76895e-06
-2.07599e-06
9.43202e-06
-2.03241e-06
1.11944e-05
-2.0115e-06
1.31249e-05
-1.93004e-06
1.53253e-05
-1.73299e-06
1.79615e-05
-1.35848e-06
2.12828e-05
-7.87603e-07
2.5667e-05
2.34719e-07
3.22494e-05
9.62671e-07
4.08941e-06
4.16942e-05
7.5717e-06
2.60166e-06
1.45311e-05
4.2765e-07
1.97895e-05
-3.3965e-06
1.99995e-05
-3.50108e-06
1.60246e-05
-1.99473e-06
9.83244e-06
-7.99575e-07
3.87491e-06
-1.61198e-06
-1.77527e-08
-3.13256e-06
-1.32397e-06
-4.22666e-06
-5.74014e-07
-4.73858e-06
1.23846e-06
-4.63663e-06
3.31837e-06
-4.21284e-06
5.41636e-06
-3.87735e-06
7.56981e-06
-3.79488e-06
9.81698e-06
-3.86869e-06
1.22012e-05
-4.00999e-06
1.47984e-05
-4.17073e-06
1.77197e-05
-4.32822e-06
2.11073e-05
-4.44829e-06
2.51367e-05
-4.53787e-06
3.01643e-05
-4.52116e-06
3.63207e-05
-4.8978e-06
-4.44464e-06
4.51737e-05
4.31535e-06
-1.64077e-09
6.86664e-06
-2.46755e-08
5.78992e-06
-1.66063e-07
4.26356e-06
-2.8354e-08
4.00615e-06
-6.12062e-10
4.57231e-06
-2.69614e-07
4.86825e-06
-3.19e-07
3.85305e-06
-1.9083e-08
2.61219e-06
-1.63928e-09
1.76394e-06
-1.23176e-10
1.37906e-06
-6.5968e-12
1.3218e-06
-1.65119e-13
1.63224e-06
8.57913e-19
2.3565e-06
6.65427e-17
3.43508e-06
3.52487e-16
4.78646e-06
8.98151e-16
6.34859e-06
1.32272e-15
8.08489e-06
1.60979e-15
1.00063e-05
1.31248e-15
1.20401e-05
-1.2375e-14
1.41268e-05
-1.49931e-13
1.58916e-05
-8.65971e-13
-2.54697e-12
1.82244e-05
-1.63155e-09
-1.34455e-11
-2.63495e-08
-1.22103e-11
-1.9253e-07
2.72956e-11
-3.01381e-07
-6.60874e-14
-5.2177e-08
-9.79808e-15
1.68915e-07
-5.67009e-16
2.08512e-08
-2.13521e-15
1.76826e-09
-3.55379e-14
1.28918e-10
-2.92435e-14
6.69164e-12
6.48776e-14
1.6513e-13
5.56758e-15
2.23002e-20
1.76433e-16
7.29076e-17
-1.96375e-19
4.78001e-16
2.97258e-16
1.06103e-15
1.53109e-15
1.08093e-15
3.88708e-15
6.02147e-16
6.22695e-15
-1.58849e-16
7.68892e-15
-7.71279e-16
4.92501e-15
2.90343e-16
-1.34367e-14
5.71873e-15
-1.56366e-13
4.7171e-14
-9.16676e-13
-2.7477e-12
1.72717e-13
-1.36376e-11
2.31038e-12
-2.7938e-11
-1.37534e-12
-1.57167e-15
-6.38654e-13
-3.34399e-16
-6.71226e-14
-5.87473e-17
-1.02339e-14
-1.47962e-16
-5.59748e-16
-2.40254e-15
1.19369e-16
-3.83172e-14
3.76775e-16
-6.80434e-14
4.84503e-16
-4.95433e-15
1.93794e-15
-1.60242e-16
9.42673e-16
1.11552e-17
1.10543e-17
-4.7164e-17
7.46172e-16
-4.76779e-16
2.72549e-15
-1.42139e-15
4.58913e-15
-2.76008e-15
6.11554e-15
-3.66467e-15
7.20536e-15
-4.00468e-15
6.52269e-15
-2.37369e-15
-1.16309e-14
1.5483e-14
-3.12946e-14
1.29296e-13
-2.78425e-13
5.97455e-13
-1.46002e-12
-4.04398e-12
1.6503e-12
1.94428e-12
1.81013e-12
6.66185e-13
-3.5125e-13
1.1488e-14
-2.99923e-15
5.64482e-16
-7.44675e-16
-6.53239e-16
-7.05263e-16
1.5993e-16
-7.91595e-16
7.40228e-16
-2.03408e-16
1.28732e-15
2.36197e-16
1.30995e-15
4.90072e-16
2.75346e-17
6.85025e-16
1.11533e-15
7.90668e-16
-1.83906e-16
1.25111e-15
-1.27582e-15
2.04771e-15
-1.68027e-15
2.94601e-15
-1.41526e-15
3.85462e-15
-8.23426e-16
4.62863e-15
-3.01889e-16
4.44598e-15
-4.00742e-17
-9.60336e-15
1.91655e-15
-1.35926e-14
7.6736e-14
-1.50134e-13
1.03802e-12
-1.49478e-12
1.03079e-11
-1.0633e-10
-2.35454e-10
3.44099e-11
4.06549e-13
2.23505e-13
4.88883e-15
1.16749e-15
9.16147e-16
-5.9208e-18
1.69152e-16
-8.41242e-18
2.33521e-16
4.17649e-18
2.1887e-16
2.26937e-17
2.12632e-17
7.78922e-17
2.74305e-16
1.9813e-16
7.28561e-16
3.98915e-16
1.2392e-15
6.67306e-16
1.55479e-15
9.7219e-16
1.80543e-15
1.3804e-15
2.11879e-15
1.88748e-15
2.4271e-15
2.37812e-15
2.65925e-15
2.72779e-15
2.38875e-15
2.63032e-15
-4.90187e-15
-3.84851e-15
2.51725e-14
-3.96776e-14
1.08243e-12
-8.33625e-13
1.17797e-12
-4.58977e-11
-2.08255e-11
-5.05266e-10
-3.52247e-11
-6.40756e-10
-5.33757e-10
-8.24184e-11
-4.78092e-16
2.22045e-16
2.14535e-17
-1.13456e-16
1.15327e-17
-3.43654e-19
2.6592e-18
4.61039e-19
-1.11437e-18
3.69916e-18
5.46929e-18
1.64264e-17
8.06995e-17
5.57768e-17
2.74422e-16
1.48135e-16
6.18093e-16
3.12355e-16
1.07761e-15
5.43978e-16
1.54191e-15
8.13898e-16
1.97613e-15
1.08179e-15
2.3825e-15
1.29694e-15
2.68284e-15
1.41869e-15
2.5225e-15
1.4016e-15
-3.57615e-15
3.5871e-16
1.16559e-14
-1.90786e-14
7.03179e-13
-7.65462e-13
4.25133e-12
-2.84563e-11
-3.08408e-10
-3.69763e-10
-3.98818e-10
-5.97851e-10
-4.46517e-10
-5.74541e-10
-4.6498e-10
-4.80266e-10
-2.061e-18
2.14432e-17
1.36748e-18
1.31524e-18
5.44033e-19
3.47789e-21
-2.54463e-19
4.33416e-19
-8.2176e-19
2.5935e-18
8.45514e-19
1.11974e-17
3.60108e-17
3.78954e-17
1.46635e-16
9.93454e-17
3.76555e-16
2.06364e-16
7.31246e-16
3.51096e-16
1.15685e-15
5.03491e-16
1.55682e-15
6.21707e-16
1.82874e-15
6.72222e-16
1.85596e-15
6.51239e-16
4.72064e-16
5.59899e-16
-2.64687e-14
5.50579e-17
-3.55954e-14
-9.95199e-15
-5.66596e-13
-4.16978e-13
-2.23843e-10
-1.70148e-11
-5.85447e-10
-4.38735e-10
-6.50137e-10
-5.07457e-10
-6.92625e-10
-5.06349e-10
-1.77842e-11
-1.36201e-12
4.18616e-18
4.18928e-18
7.36898e-19
1.71458e-19
-3.8747e-21
2.87929e-20
-2.05124e-19
3.24633e-19
-6.30054e-19
1.74108e-18
-2.95321e-21
7.08215e-18
2.44152e-17
2.28389e-17
1.00797e-16
5.75927e-17
2.55674e-16
1.15114e-16
4.85476e-16
1.86596e-16
7.40497e-16
2.50858e-16
9.37532e-16
2.84747e-16
1.00781e-15
2.77665e-16
9.09936e-16
2.37999e-16
9.07773e-17
1.77721e-16
-1.3043e-14
6.31047e-17
-2.21335e-14
-8.57076e-16
-4.90422e-13
-2.82093e-14
-7.93559e-11
-6.25787e-13
-5.46937e-10
-8.7758e-11
-7.55563e-10
-2.73126e-10
-8.22334e-11
-3.36521e-10
-2.39799e-11
-1.18361e-11
2.00777e-19
1.97337e-19
1.01322e-20
1.01901e-20
-1.77185e-20
2.088e-20
-8.26307e-20
1.95756e-19
-7.053e-20
9.82978e-19
4.22942e-18
3.86668e-18
2.33953e-17
1.19557e-17
7.29191e-17
2.86634e-17
1.62739e-16
5.41594e-17
2.81674e-16
8.22953e-17
3.92699e-16
1.02573e-16
4.50088e-16
1.0674e-16
4.31985e-16
9.42787e-17
3.43568e-16
7.18566e-17
1.25518e-16
4.36925e-17
-1.63919e-15
-5.01528e-17
1.28312e-15
-3.35881e-15
2.63798e-13
-6.10072e-14
-1.70748e-13
-9.11857e-14
-1.82147e-10
-3.5448e-14
-3.95096e-10
-1.54631e-12
-2.09558e-10
-3.14807e-11
-2.01721e-11
-1.52978e-10
8.07292e-21
4.11771e-21
-7.26871e-22
-7.29215e-22
-7.9831e-21
1.18844e-20
-2.11802e-20
9.78843e-20
4.83269e-19
4.65231e-19
4.29123e-18
1.75163e-18
1.69676e-17
5.15763e-18
4.51789e-17
1.17184e-17
8.97325e-17
2.08643e-17
1.39665e-16
2.96605e-17
1.75036e-16
3.42665e-17
1.79497e-16
3.27916e-17
1.52693e-16
2.64527e-17
9.95411e-17
1.81751e-17
-1.18051e-16
9.01817e-18
-1.43305e-16
-2.48982e-17
-1.29692e-13
-1.92034e-15
-8.04566e-14
-3.744e-14
-7.71828e-15
-5.08811e-14
-5.16612e-14
-1.12835e-14
-1.61307e-12
-2.83484e-15
-3.30359e-11
-1.90759e-13
-4.6942e-12
-6.98197e-11
1.57856e-22
1.71596e-21
-3.7455e-22
-4.93515e-22
-2.05709e-21
5.30926e-21
4.57238e-20
3.91649e-20
6.56951e-19
1.74475e-19
3.24166e-18
6.28598e-19
1.0321e-17
1.76392e-18
2.3867e-17
3.79855e-18
4.2209e-17
6.3759e-18
5.89266e-17
8.4913e-18
6.63028e-17
9.12091e-18
6.10033e-17
8.05143e-18
4.62143e-17
5.97119e-18
2.44599e-17
3.72454e-18
-5.17922e-17
1.3341e-18
-6.94081e-17
-7.28231e-18
-7.06727e-14
-6.22883e-17
-1.07005e-13
-8.57011e-16
-6.21718e-14
-5.21737e-15
-5.93396e-15
-1.579e-15
-2.44979e-14
-2.1981e-15
-2.28542e-13
-4.64169e-15
-2.76354e-15
-1.1438e-11
1.12025e-24
4.56804e-23
-9.32269e-23
-2.55291e-22
1.64065e-21
1.80954e-21
6.79925e-20
1.18486e-20
4.51233e-19
4.86479e-20
1.77979e-18
1.67211e-19
4.93184e-18
4.48853e-19
1.02002e-17
9.18845e-19
1.63012e-17
1.45851e-18
2.06238e-17
1.8276e-18
2.10342e-17
1.83623e-18
1.75341e-17
1.506e-18
1.18949e-17
1.03108e-18
4.48935e-18
5.79375e-19
-1.69463e-17
1.01885e-19
-1.11678e-16
-1.924e-18
-1.25767e-16
-1.90484e-17
-8.95947e-16
-5.91557e-17
-3.87381e-15
-4.21424e-16
-6.62006e-15
-1.63323e-15
-7.10996e-15
-2.58684e-15
-6.12873e-15
-2.77852e-15
-3.579e-15
-6.95233e-15
-6.25159e-25
-1.41564e-22
-2.81162e-25
-1.2212e-22
3.91062e-21
4.40922e-22
4.0312e-20
2.47028e-21
2.09907e-19
8.91463e-21
7.24843e-19
2.91398e-20
1.81109e-18
7.55858e-20
3.41628e-18
1.48454e-19
5.0027e-18
2.24601e-19
5.81093e-18
2.67132e-19
5.44435e-18
2.53643e-19
4.16709e-18
1.9487e-19
2.53229e-18
1.22876e-19
4.64699e-19
6.05932e-20
-6.06387e-18
2.9981e-21
-2.17729e-17
-3.02218e-19
-8.06998e-17
-2.88822e-18
-4.7382e-16
-2.75754e-17
-4.83232e-15
-2.02113e-16
-1.23794e-14
-8.39833e-16
-1.33367e-14
-1.30457e-15
-1.43002e-14
-1.5161e-15
-1.52508e-15
-1.05729e-14
4.8143e-24
-7.7506e-23
1.13553e-22
-4.952e-23
1.9768e-21
6.81957e-23
1.50169e-20
2.89157e-22
6.83721e-20
7.34324e-22
2.14572e-19
2.23737e-21
4.93826e-19
5.91414e-21
8.63026e-19
1.15724e-20
1.1752e-18
1.71003e-20
1.27338e-18
1.96349e-20
1.11385e-18
1.77756e-20
7.90576e-19
1.26841e-20
4.26193e-19
6.99876e-21
2.20795e-20
2.61491e-21
-1.44065e-18
-2.78444e-22
-2.35405e-18
-2.18188e-20
-3.38732e-17
-2.59374e-19
-3.99987e-16
-2.77541e-18
-2.45372e-15
-1.67884e-17
-8.6701e-15
-7.60315e-17
-1.25164e-14
-2.59652e-16
-1.4022e-14
-4.10299e-16
-3.67529e-16
-1.5503e-14
2.54626e-24
-2.8933e-23
4.54463e-23
-1.47931e-23
5.54797e-22
5.03609e-24
3.63235e-21
4.61046e-24
1.50984e-20
-4.12354e-22
4.40495e-20
-1.4173e-21
9.49153e-20
-2.78534e-21
1.56012e-19
-4.26348e-21
2.00643e-19
-5.40827e-21
2.05929e-19
-5.81087e-21
1.69645e-19
-5.44089e-21
1.09586e-19
-4.49133e-21
4.73811e-20
-3.12805e-21
-5.52065e-21
-1.49368e-21
-2.78857e-20
2.785e-22
-5.48297e-19
2.61614e-21
-7.49081e-18
2.98492e-20
-5.68192e-17
2.00341e-19
-2.94126e-16
8.5441e-19
-1.72179e-15
4.36417e-18
-6.72368e-15
2.9284e-17
-7.45412e-15
1.1872e-16
1.52811e-16
-7.9426e-15
5.52849e-25
-7.6291e-24
8.55722e-24
-2.80873e-24
8.89118e-23
-1.54763e-26
5.31674e-22
-3.05405e-23
2.06689e-21
-2.10331e-22
5.69055e-21
-6.58034e-22
1.16349e-20
-1.42665e-21
1.82299e-20
-2.39415e-21
2.24411e-20
-3.1995e-21
2.20274e-20
-3.46061e-21
1.68676e-20
-3.06338e-21
8.94748e-21
-2.16988e-21
8.67919e-22
-1.09197e-21
-9.05245e-21
-1.02778e-22
-1.1963e-20
1.03371e-21
-9.777e-20
1.3457e-21
-1.04374e-18
1.19883e-20
-6.28542e-18
7.12831e-20
-3.62634e-17
3.49823e-19
-2.60247e-16
2.03007e-18
-9.21756e-16
8.90089e-18
-1.0524e-15
1.76597e-17
2.13414e-17
-1.1617e-15
5.03949e-26
-1.32839e-24
6.90104e-25
-2.57787e-25
6.54001e-24
-3.44043e-25
3.67558e-23
-4.53833e-24
1.35713e-22
-2.44319e-23
3.5708e-22
-7.31041e-23
7.00912e-22
-1.56203e-22
1.05894e-21
-2.57943e-22
1.26057e-21
-3.37708e-22
1.17845e-21
-3.56383e-22
7.63497e-22
-3.01062e-22
1.822e-22
-1.79351e-22
-6.25889e-22
-4.00191e-23
-1.05355e-21
1.29498e-22
-2.78583e-21
1.49256e-22
-1.28815e-20
4.02552e-22
-8.43583e-20
1.61916e-21
-4.83891e-19
6.83185e-21
-3.50365e-18
3.59482e-20
-2.27836e-17
2.2318e-19
-6.29921e-17
7.5881e-19
-7.55439e-17
1.28981e-18
1.56193e-18
-9.11756e-17
3.26136e-28
-1.45215e-25
6.37166e-28
-1.80405e-27
1.02542e-26
-6.11233e-28
7.08361e-26
-1.07236e-26
2.6212e-25
-6.65641e-26
6.69911e-25
-2.00429e-25
1.28154e-24
-4.22018e-25
1.8849e-24
-6.86622e-25
2.17183e-24
-8.81496e-25
9.54578e-25
-9.04342e-25
-8.23192e-24
-3.59792e-25
-1.48183e-23
2.83201e-24
-3.52594e-23
8.68734e-24
-1.45622e-22
4.01292e-24
-5.62579e-22
2.55722e-23
-2.09858e-21
1.01503e-22
-7.05006e-21
2.95256e-22
-2.59607e-20
8.18167e-22
-1.77256e-19
2.23507e-21
-1.12466e-18
8.95016e-21
-2.86775e-18
2.84843e-20
-3.49535e-18
5.0094e-20
5.95146e-20
-3.84092e-18
5.02214e-30
-1.18178e-26
2.73647e-29
-3.12467e-29
1.59178e-28
-3.96687e-29
5.96051e-28
-2.25813e-28
1.41039e-27
-7.31839e-28
2.31632e-27
-1.41084e-27
3.50764e-27
-1.92375e-27
4.75893e-27
-2.49303e-27
5.30367e-27
-2.96476e-27
1.22287e-27
-2.94978e-27
-5.44727e-26
-6.16436e-28
-1.2492e-25
9.8733e-28
-1.48374e-24
2.31214e-26
-1.29213e-23
3.57003e-25
-7.25315e-23
2.65657e-24
-3.22799e-22
1.43536e-23
-1.25517e-21
5.94207e-23
-3.14033e-21
2.12318e-22
-7.31746e-21
4.44902e-22
-2.15586e-20
6.71593e-22
-5.76304e-20
9.7443e-22
-8.75374e-20
1.36694e-21
1.60484e-21
-5.83734e-20
4.28963e-31
-7.984e-28
3.38275e-30
-3.06711e-30
1.86732e-29
-6.74801e-30
6.13839e-29
-3.38972e-29
1.28227e-28
-9.38534e-29
1.71514e-28
-1.59731e-28
1.39783e-28
-1.78269e-28
8.79524e-29
-1.24838e-28
5.00414e-29
-6.90443e-29
-9.26342e-30
-3.5137e-29
-5.51324e-28
5.90155e-30
-5.12505e-27
5.38431e-29
-9.37373e-26
1.8235e-27
-8.90921e-25
2.49124e-26
-5.44592e-24
1.94091e-25
-2.8094e-23
1.09061e-24
-1.88162e-22
6.61875e-24
-7.46194e-22
4.04113e-23
-1.43125e-21
1.19216e-22
-2.14847e-21
1.6589e-22
-2.82065e-21
2.06971e-22
-3.12636e-21
2.52126e-22
2.68136e-22
-3.18546e-21
2.55919e-32
-4.78888e-29
2.03751e-31
-2.15503e-31
1.16498e-30
-5.3176e-31
3.90584e-30
-2.60174e-30
8.21961e-30
-7.18682e-30
1.10152e-29
-1.2325e-29
8.62682e-30
-1.38336e-29
4.87156e-30
-9.33703e-30
2.2367e-30
-4.64434e-30
1.96849e-31
-1.91012e-30
-4.1247e-29
-1.52669e-31
-1.17983e-28
6.61401e-31
-3.29066e-27
4.35791e-29
-5.00442e-26
9.10706e-28
-3.12108e-25
1.06942e-26
-2.16191e-24
6.23108e-26
-1.34432e-23
4.32517e-25
-5.19934e-23
1.88739e-24
-1.40096e-22
6.01196e-24
-3.08424e-22
1.64117e-23
-5.1875e-22
3.57055e-23
-6.1575e-22
5.51881e-23
6.16925e-23
-6.57297e-22
2.09472e-34
-2.64157e-30
6.31865e-34
-2.07933e-33
5.17047e-33
-2.07091e-33
2.04905e-32
-1.38051e-32
4.41834e-32
-4.43782e-32
5.93735e-32
-7.80122e-32
4.6899e-32
-8.80366e-32
2.68973e-32
-6.00492e-32
1.2589e-32
-3.03762e-32
-1.63827e-33
-1.27475e-32
-1.55068e-31
7.58233e-34
-1.26662e-30
3.82638e-33
-6.83634e-29
4.78981e-31
-1.43198e-27
1.7739e-29
-1.32869e-26
2.70069e-28
-9.40962e-26
2.39164e-27
-6.42532e-25
1.26122e-26
-2.67342e-24
6.48668e-26
-7.49093e-24
1.95952e-25
-1.26856e-23
3.72772e-25
-1.48756e-23
4.14287e-25
-1.57183e-23
3.7945e-25
3.6685e-25
-1.65078e-23
1.49026e-36
-1.36581e-31
2.31238e-36
-1.74204e-35
2.39244e-35
-9.30404e-36
1.05045e-34
-7.55974e-35
2.31058e-34
-2.66338e-34
3.12828e-34
-4.77003e-34
2.49793e-34
-5.42467e-34
1.45261e-34
-3.74052e-34
6.87897e-35
-1.91832e-34
-3.19091e-35
-8.14356e-35
-5.45175e-35
5.56247e-36
-6.64618e-33
4.05776e-35
-6.87465e-31
2.73693e-33
-2.25014e-29
1.90861e-31
-3.90564e-28
3.84474e-30
-2.30407e-27
4.20793e-29
-1.42702e-26
1.69107e-28
-6.58991e-26
7.78749e-28
-1.7214e-25
2.41982e-27
-2.53004e-25
4.47219e-27
-2.7362e-25
5.76072e-27
-2.78454e-25
6.0603e-27
5.90836e-27
-3.06452e-25
1.07496e-38
-6.70045e-33
9.4125e-39
-1.46526e-37
1.17088e-37
-4.68542e-38
5.60244e-37
-4.49579e-37
1.26344e-36
-1.69898e-36
1.73402e-36
-3.09163e-36
1.40445e-36
-3.54434e-36
8.29093e-37
-2.46931e-36
3.9613e-37
-1.28175e-36
-3.90865e-37
-5.47673e-37
-5.44109e-37
7.58578e-39
-4.81909e-35
4.55038e-37
-6.38369e-33
2.54788e-35
-2.73142e-31
1.53752e-33
-4.11042e-30
2.83194e-32
-2.83812e-29
2.27009e-31
-1.438e-28
1.17823e-30
-5.3809e-28
4.21994e-30
-1.5397e-27
1.22353e-29
-3.29606e-27
3.00034e-29
-4.34074e-27
5.81055e-29
-4.5017e-27
7.35793e-29
7.64058e-29
-4.64263e-27
8.55957e-41
-3.1484e-34
4.00858e-41
-1.31611e-39
5.81552e-40
-2.56768e-40
3.0539e-39
-2.89054e-39
7.15851e-39
-1.16317e-38
1.00543e-38
-2.14792e-38
8.30662e-39
-2.48215e-38
4.99441e-39
-1.74646e-38
2.40587e-39
-9.16686e-39
-4.17897e-39
-3.92715e-39
-7.05338e-39
1.04537e-40
-4.70859e-37
5.15234e-39
-4.07501e-35
2.56375e-37
-1.46352e-33
9.02256e-36
-2.21889e-32
1.46526e-34
-1.5821e-31
1.25442e-33
-8.64488e-31
6.52695e-33
-3.42711e-30
2.73794e-32
-9.74108e-30
8.28632e-32
-1.97426e-29
1.84273e-31
-2.77706e-29
3.02593e-31
-3.4325e-29
3.84949e-31
4.41735e-31
-3.63806e-29
8.38496e-43
-1.4278e-35
1.60291e-43
-1.43076e-41
2.74191e-42
-1.49153e-42
1.65198e-41
-1.99192e-41
4.1275e-41
-8.52406e-41
6.01308e-41
-1.59555e-40
5.10704e-41
-1.85765e-40
3.14262e-41
-1.31938e-40
1.52798e-41
-6.99821e-41
-4.14181e-41
-2.99759e-41
-8.27197e-41
1.5429e-42
-4.59097e-39
6.21862e-41
-3.24787e-37
2.63552e-39
-1.075e-35
8.52439e-38
-1.58883e-34
1.32704e-36
-1.13277e-33
1.11736e-35
-6.23463e-33
5.78572e-35
-2.49196e-32
2.42917e-34
-7.12132e-32
7.36467e-34
-1.44272e-31
1.63992e-33
-2.00576e-31
2.6791e-33
-2.34822e-31
3.32208e-33
1.12559e-31
-2.3587e-31
1.21491e-44
-6.28767e-37
5.1823e-46
-2.30365e-43
1.11227e-44
-9.0587e-45
8.60297e-44
-1.46058e-43
2.39568e-43
-6.6574e-43
3.68602e-43
-1.26079e-42
3.24861e-43
-1.47744e-42
2.05706e-43
-1.05854e-42
1.01219e-43
-5.67044e-43
-3.89917e-43
-2.42519e-43
-1.02197e-42
2.81392e-44
-4.68905e-41
7.76776e-43
-2.69603e-39
2.8612e-41
-8.36346e-38
8.39575e-40
-1.20536e-36
1.26853e-38
-8.60972e-36
1.05782e-37
-4.78509e-35
5.5022e-37
-1.94049e-34
2.32709e-36
-5.63886e-34
7.12268e-36
-1.16092e-33
1.78859e-35
-1.56218e-33
5.92903e-35
-2.67124e-33
9.12897e-34
2.33974e-33
-1.1415e-32
2.44467e-46
-2.69913e-38
2.54358e-49
-5.74629e-45
2.70297e-47
-6.18688e-47
4.23536e-46
-1.13537e-45
1.40667e-45
-5.51363e-45
2.32923e-45
-1.05363e-44
2.14831e-45
-1.24128e-44
1.40653e-45
-8.96554e-45
7.027e-46
-4.84768e-45
-3.57228e-45
-2.07003e-45
-1.30751e-44
4.02613e-46
-4.92929e-43
9.46343e-45
-2.38325e-41
3.15921e-43
-6.81529e-40
8.58869e-42
-9.72086e-39
1.27626e-40
-7.01823e-38
1.06412e-39
-3.9427e-37
5.58393e-39
-1.62378e-36
2.51286e-38
-4.70899e-36
1.24202e-37
-9.40742e-36
3.80205e-36
-1.89692e-35
3.54289e-36
-5.82824e-34
3.48899e-35
1.6817e-33
-4.00966e-33
1.71823e-47
-1.13114e-39
-2.4615e-47
-6.89213e-46
-2.58401e-50
-1.50799e-48
1.89564e-48
-9.32713e-48
8.44231e-48
-4.81483e-47
1.53144e-47
-9.25578e-47
1.48772e-47
-1.09527e-46
1.00987e-47
-7.97114e-47
5.13323e-48
-4.34803e-47
-3.25659e-47
-1.8547e-47
-1.44781e-46
5.03827e-48
-5.07771e-45
1.14529e-46
-2.17189e-43
3.53565e-45
-5.82914e-42
9.11962e-44
-8.223e-41
1.32549e-42
-6.00696e-40
1.13552e-41
-3.38687e-39
7.75892e-41
-1.45524e-38
2.9535e-39
-4.12874e-38
6.03202e-39
-2.64829e-37
1.02699e-37
-9.95154e-36
7.41269e-37
-1.76482e-34
1.02253e-34
1.71745e-32
-2.11201e-32
-6.2204e-44
-4.6204e-41
-5.34882e-47
-6.92268e-46
-3.00666e-50
-6.1264e-49
6.31119e-51
-8.13092e-50
5.10986e-50
-4.4042e-49
1.04178e-49
-8.49615e-49
1.07471e-49
-1.0096e-48
7.58893e-50
-7.40185e-49
3.93536e-50
-4.07137e-49
-2.99298e-49
-1.73612e-49
-1.48199e-48
5.89785e-50
-5.13111e-47
1.42289e-48
-2.02593e-45
4.00155e-47
-5.21532e-44
1.00295e-45
-7.22407e-43
1.43108e-44
-5.33417e-42
6.77184e-43
-2.46819e-41
3.27453e-42
-2.53633e-40
1.31222e-40
-1.17197e-38
1.53709e-39
-2.91709e-37
2.37473e-37
-6.4698e-35
4.96212e-35
-9.57418e-33
7.26303e-33
1.14872e-30
-1.4577e-30
-2.13364e-44
-1.82767e-42
-2.10522e-47
-1.65856e-46
-1.2974e-50
-1.7717e-49
-5.34365e-54
-9.00754e-52
2.79202e-52
-4.19415e-51
7.04003e-52
-8.10846e-51
7.91389e-52
-9.67902e-51
5.87162e-52
-7.14793e-51
3.12495e-52
-3.96322e-51
-2.7666e-51
-1.69095e-51
-1.4548e-50
6.64538e-52
-5.11882e-49
1.71925e-50
-1.9232e-47
4.65536e-49
-4.67716e-46
1.86639e-47
-4.66427e-45
4.15004e-46
-6.87404e-44
1.88252e-44
-4.53231e-42
9.57239e-43
-1.3102e-40
1.31958e-40
-5.76446e-38
4.69347e-38
-1.09152e-35
8.77408e-36
-1.89479e-33
1.5132e-33
-3.11254e-31
2.45562e-31
4.42778e-29
-5.46595e-29
-1.91273e-45
-6.91602e-44
-2.7307e-48
-1.44761e-47
-2.29599e-51
-2.37245e-50
-9.45035e-55
-3.4614e-53
7.75996e-55
-4.14105e-53
4.31646e-54
-8.01908e-53
5.72406e-54
-9.62021e-53
4.57738e-54
-7.15465e-53
2.53238e-54
-3.9971e-53
-2.55736e-53
-1.70786e-53
-1.38528e-52
7.33027e-54
-4.95296e-51
2.29027e-52
-1.4058e-49
6.39669e-51
-2.88713e-48
3.5563e-49
-2.36875e-46
8.28139e-47
-1.39052e-44
1.86217e-44
-7.00571e-42
6.24494e-42
-1.86883e-39
1.57494e-39
-4.15779e-37
3.62251e-37
-9.03546e-35
7.72113e-35
-1.81883e-32
1.52511e-32
-3.43114e-30
2.83368e-30
6.20651e-28
-7.25183e-28
-1.2025e-46
-2.46024e-45
-2.32974e-49
-9.24098e-49
-2.63075e-52
-2.20682e-51
-1.63053e-55
-3.2774e-54
-6.20453e-57
-4.248e-55
1.89361e-56
-8.20422e-55
3.89402e-56
-9.8935e-55
3.54777e-56
-7.40577e-55
2.07959e-56
-4.16519e-55
-2.37174e-55
-1.78336e-55
-1.24155e-54
7.91864e-56
-3.51781e-53
2.51642e-54
-1.25745e-51
1.75312e-52
-1.5035e-49
5.50571e-50
-5.01258e-47
5.14058e-47
-1.72234e-44
2.66314e-44
-5.38473e-42
7.7731e-42
-1.53782e-39
2.08589e-39
-4.04697e-37
5.18616e-37
-9.87137e-35
1.20176e-34
-2.2683e-32
2.60213e-32
-7.75325e-30
5.33381e-30
1.57921e-27
-1.39793e-27
-5.88319e-48
-8.06367e-47
-1.42577e-50
-4.82728e-50
-2.06087e-53
-1.52287e-52
-1.86624e-56
-2.65997e-55
-1.69123e-58
-4.70325e-57
-2.40128e-59
-8.67691e-57
2.33987e-58
-1.05132e-56
2.71197e-58
-7.91236e-57
1.73516e-58
-4.47555e-57
-2.29287e-57
-1.9195e-57
-1.10334e-56
8.27834e-58
-4.47146e-55
4.79891e-56
-5.26218e-53
1.46947e-53
-2.11266e-50
9.67812e-51
-9.00402e-48
4.4778e-48
-3.39768e-45
1.81008e-45
-1.14371e-42
5.93256e-43
-3.53176e-40
1.80026e-40
-1.00733e-37
5.10206e-38
-2.66632e-35
1.36075e-35
-7.84734e-33
3.43719e-33
-2.44749e-30
8.38745e-31
3.40101e-28
1.0755e-27
-2.3718e-49
-2.38132e-48
-6.6795e-52
-2.18249e-51
-1.16365e-54
-8.21393e-54
-1.37066e-57
-1.62391e-56
-3.41614e-60
-6.73527e-59
-1.6959e-60
-9.48461e-59
1.18758e-60
-1.15312e-58
2.1505e-60
-8.71287e-59
1.52178e-60
-4.94986e-59
-2.62264e-59
-2.1209e-59
-1.49938e-58
1.70428e-59
-8.6545e-57
4.00904e-57
-3.27609e-54
1.87416e-54
-1.45762e-51
8.23192e-52
-5.73562e-49
3.0719e-49
-2.15079e-46
1.0185e-46
-7.24149e-44
3.04341e-44
-2.21341e-41
8.26099e-42
-6.19209e-39
2.04768e-39
-1.59288e-36
4.64878e-37
-6.8977e-34