/*--------------------------------*- C++ -*----------------------------------*\
| =========                 |                                                 |
| \\      /  F ield         | OpenFOAM: The Open Source CFD Toolbox           |
|  \\    /   O peration     | Version:  2206                                  |
|   \\  /    A nd           | Website:  www.openfoam.com                      |
|    \\/     M anipulation  |                                                 |
\*---------------------------------------------------------------------------*/
FoamFile
{
    version     2.0;
    format      ascii;
    arch        "LSB;label=32;scalar=64";
    class       volScalarField;
    location    "0.675";
    object      p;
}
// * * * * * * * * * * * * * * * * * * * * * * * * * * * * * * * * * * * * * //

dimensions      [1 -1 -2 0 0 0 0];

internalField   nonuniform List<scalar> 
2268
(
745.635
745.534
745.627
745.844
746.039
746.174
746.303
746.534
746.935
747.524
748.264
749.122
750.066
751.069
752.102
753.127
754.086
754.906
755.418
755.64
755.808
756.351
757.19
686.64
686.48
686.572
686.778
686.97
687.101
687.234
687.479
687.901
688.502
689.265
690.144
691.102
692.111
693.148
694.184
695.169
695.992
696.459
696.434
696.388
696.974
698.011
627.406
627.237
627.307
627.483
627.665
627.788
627.936
628.219
628.698
629.369
630.194
631.125
632.12
633.149
634.184
635.195
636.141
636.971
637.614
638.056
638.538
639.146
639.97
567.917
567.757
567.797
567.949
568.111
568.217
568.385
568.743
569.325
570.105
571.029
572.04
573.097
574.17
575.238
576.274
577.252
578.141
578.927
579.636
580.372
581.185
582.1
508.077
507.919
507.914
508.085
508.28
508.419
508.615
509.067
509.796
510.73
511.794
512.915
514.058
515.198
516.319
517.408
518.446
519.415
520.306
521.139
521.994
522.912
523.85
447.692
447.373
447.208
447.384
447.86
448.31
448.701
449.276
450.174
451.292
452.516
453.776
455.024
456.243
457.429
458.577
459.678
460.719
461.693
462.608
463.504
464.411
465.213
386.545
385.632
384.848
384.872
385.97
387.394
388.485
389.412
390.539
391.855
393.251
394.65
396.007
397.309
398.561
399.767
400.928
402.026
403.047
403.967
404.749
405.335
405.584
324.881
322.924
321.177
320.821
322.68
325.563
327.814
329.461
330.963
332.51
334.069
335.587
337.034
338.405
339.715
340.978
342.196
343.34
344.399
345.345
346.04
346.604
344.702
275.26
260.333
224.303
189.838
189.358
205.196
235.447
309.109
438.959
498.147
530.491
596.004
644.102
692.147
711.399
631.001
580.072
764.506
988.284
256.891
237.643
196.963
173.21
179.378
198.883
226.757
272.28
381.64
437.246
470.028
542.481
600.044
656.775
669.932
564.064
481.308
659.03
915.559
247.249
220.559
184.691
168.372
176.056
195.244
210.974
220.316
277.352
307.111
349.556
450.191
546.922
633.465
643.88
489.099
364.283
525.832
826.083
240.52
209.142
182.039
166.519
173.313
184.47
172.567
146.364
145.669
164.332
209.562
330.767
467.295
591.124
609.939
421.802
258.644
384.911
725.153
228.081
203.455
182.355
166.295
165.857
153.64
117.371
68.1443
29.4627
21.4907
61.7285
191.338
362.505
526.369
556.405
363.284
172.376
258.236
623.03
216.462
202.743
182.865
162.469
140.727
105.867
58.6019
17.9781
6.52983
6.36999
9.23529
59.7555
236.68
440.939
482.726
301.052
105.119
164.638
535.74
208.953
197.431
172.466
135.234
100.133
53.8666
16.112
5.4551
5.83697
6.1345
6.56063
13.0126
115.787
348.441
403.486
242.448
65.8702
110.461
477.491
183.33
172.302
139.897
95.7254
59.7244
14.7658
4.45439
5.15071
5.72127
6.11178
6.45251
8.80924
34.8101
266.588
343.13
199.727
54.9221
102.804
450.132
229.158
225.698
222.456
221.646
225.465
230.589
233.954
236.279
238.165
239.924
241.668
243.354
244.922
246.368
247.73
249.03
250.251
251.352
252.177
252.497
251.504
248.41
237.967
108.678
106.281
103.847
103.733
106.464
110.049
112.016
112.616
113.57
114.858
116.479
118.13
119.641
121.048
122.415
123.753
125.035
126.182
127.06
127.445
127.04
125.112
121.308
27.3268
25.8351
22.9226
21.5308
23.1575
25.4343
25.4732
25.219
25.8787
26.9482
28.247
29.1197
29.5011
29.8827
30.4264
31.0983
31.8286
32.5401
33.1326
33.4825
33.5142
33.167
31.9166
1.9861
1.94067
1.88051
1.96735
2.1788
2.12521
1.90101
1.84525
1.85682
1.87899
1.90038
1.91434
1.92012
1.92998
1.94208
1.95662
1.97259
1.98941
2.00688
2.02455
2.04199
2.05841
2.07422
1.6846
1.6601
1.64291
1.67515
1.69731
1.70251
1.71092
1.71578
1.72432
1.73816
1.75553
1.76989
1.78111
1.79556
1.81063
1.82628
1.84236
1.85879
1.87556
1.89253
1.90953
1.92627
1.94308
1.5227
1.50878
1.4909
1.51923
1.54983
1.57213
1.59113
1.60308
1.61373
1.62498
1.63582
1.64658
1.65681
1.66799
1.68023
1.69353
1.70783
1.72296
1.73912
1.75524
1.77143
1.78758
1.80395
1.43511
1.43769
1.43756
1.43948
1.4471
1.45403
1.46076
1.4678
1.47511
1.48354
1.49315
1.50338
1.51438
1.52656
1.53971
1.55362
1.56818
1.58333
1.59903
1.61489
1.63022
1.645
1.65945
1.30464
1.31014
1.30899
1.30736
1.30883
1.3132
1.31915
1.32602
1.33376
1.34232
1.35168
1.36176
1.37259
1.38427
1.39687
1.41031
1.42452
1.43937
1.45477
1.47036
1.48535
1.49969
1.51317
1.15817
1.16103
1.16253
1.16387
1.16646
1.17036
1.17548
1.1815
1.18854
1.19654
1.20545
1.21523
1.22589
1.23741
1.24978
1.26295
1.27687
1.29142
1.30659
1.32234
1.33816
1.35361
1.36807
1.00854
1.0098
1.01165
1.0139
1.01699
1.02104
1.02622
1.03218
1.03908
1.0469
1.05561
1.06521
1.07567
1.08697
1.09911
1.11203
1.12571
1.14006
1.15504
1.17088
1.188
1.20508
1.22142
0.855793
0.856816
0.858213
0.860488
0.863705
0.867847
0.872907
0.878857
0.885702
0.893435
0.902047
0.911527
0.921861
0.933036
0.945034
0.95783
0.9714
0.985721
1.00073
1.01658
1.03378
1.0516
1.06918
0.698639
0.699731
0.701058
0.70338
0.706635
0.710786
0.715832
0.721766
0.728584
0.73628
0.744845
0.754272
0.764551
0.775671
0.787622
0.800388
0.813961
0.828324
0.843476
0.859452
0.876335
0.894078
0.912015
0.537712
0.538756
0.540125
0.54251
0.545806
0.549986
0.55505
0.560996
0.567818
0.575512
0.584073
0.593493
0.603768
0.614888
0.626846
0.639633
0.65324
0.667659
0.682882
0.698903
0.71576
0.733365
0.751425
0.37312
0.374178
0.375517
0.377977
0.381311
0.385529
0.390628
0.396604
0.403453
0.411173
0.419759
0.429206
0.439511
0.450665
0.462663
0.475497
0.489156
0.503633
0.518918
0.534996
0.551861
0.569469
0.587706
0.204841
0.206131
0.207215
0.20977
0.213175
0.217448
0.222595
0.228615
0.235509
0.243274
0.251908
0.261408
0.271768
0.282985
0.295052
0.30796
0.321701
0.336266
0.351644
0.367821
0.384782
0.402503
0.420926
0.0330446
0.0339484
0.0355286
0.0380587
0.0414776
0.0457834
0.050972
0.0570411
0.0639888
0.071813
0.0805113
0.0900814
0.10052
0.111822
0.123984
0.136997
0.150854
0.165547
0.181064
0.197395
0.214524
0.232436
0.251094
-0.142433
-0.141565
-0.139888
-0.137312
-0.133848
-0.129497
-0.124258
-0.118132
-0.111123
-0.103229
-0.0944537
-0.084798
-0.0742643
-0.0628557
-0.0505765
-0.0374316
-0.0234273
-0.00857051
0.00713065
0.023667
0.0410276
0.0592017
0.0781611
-0.321522
-0.320649
-0.318933
-0.316312
-0.312802
-0.308401
-0.303108
-0.296922
-0.289845
-0.281875
-0.273014
-0.263263
-0.252622
-0.241093
-0.228678
-0.215381
-0.201204
-0.186152
-0.170231
-0.153448
-0.135811
-0.117327
-0.0980217
-0.504233
-0.503346
-0.501589
-0.498939
-0.495392
-0.490947
-0.485602
-0.479358
-0.472213
-0.464167
-0.455219
-0.445368
-0.434615
-0.422958
-0.410398
-0.396936
-0.382571
-0.367306
-0.351144
-0.334087
-0.316141
-0.29731
-0.277613
-0.690588
-0.68969
-0.687911
-0.685229
-0.681646
-0.677159
-0.671768
-0.665469
-0.658261
-0.650143
-0.641111
-0.631165
-0.6203
-0.608515
-0.595809
-0.582178
-0.567621
-0.552135
-0.53572
-0.518377
-0.500103
-0.480899
-0.460784
-0.880601
-0.879693
-0.877896
-0.87519
-0.871579
-0.86706
-0.86163
-0.855286
-0.848025
-0.839845
-0.83074
-0.820707
-0.809742
-0.797839
-0.784995
-0.771204
-0.75646
-0.740757
-0.724093
-0.706462
-0.687859
-0.66828
-0.647737
-1.07428
-1.07337
-1.07156
-1.06884
-1.06521
-1.06067
-1.05521
-1.04884
-1.04154
-1.03331
-1.02415
-1.01405
-1.00301
-0.991005
-0.978043
-0.964111
-0.949201
-0.933302
-0.916407
-0.898507
-0.879592
-0.859651
-0.838694
-1.27165
-1.27073
-1.26891
-1.26619
-1.26255
-1.258
-1.25254
-1.24615
-1.23884
-1.23059
-1.22139
-1.21125
-1.20015
-1.18809
-1.17504
-1.161
-1.14596
-1.1299
-1.11281
-1.09468
-1.07549
-1.05523
-1.0339
-1.47268
-1.47177
-1.46995
-1.46724
-1.46361
-1.45907
-1.45362
-1.44724
-1.43993
-1.43169
-1.4225
-1.41236
-1.40124
-1.38915
-1.37606
-1.36197
-1.34685
-1.33069
-1.31346
-1.29516
-1.27576
-1.25524
-1.23359
-1.67739
-1.67648
-1.67468
-1.67198
-1.66837
-1.66387
-1.65845
-1.65211
-1.64485
-1.63665
-1.6275
-1.6174
-1.60632
-1.59426
-1.58119
-1.5671
-1.55197
-1.53577
-1.51849
-1.5001
-1.48058
-1.45988
-1.43802
-1.88573
-1.88483
-1.88305
-1.88038
-1.87683
-1.87237
-1.86702
-1.86075
-1.85357
-1.84545
-1.8364
-1.82639
-1.81541
-1.80344
-1.79046
-1.77646
-1.7614
-1.74526
-1.72803
-1.70965
-1.69011
-1.66938
-1.64742
-2.09766
-2.09678
-2.09503
-2.09241
-2.08892
-2.08454
-2.07928
-2.07313
-2.06607
-2.05809
-2.04918
-2.03933
-2.02851
-2.01672
-2.00391
-1.99008
-1.9752
-1.95924
-1.94216
-1.92393
-1.90452
-1.88389
-1.862
-2.31313
-2.31226
-2.31056
-2.308
-2.30459
-2.30032
-2.29519
-2.28918
-2.28229
-2.2745
-2.2658
-2.25618
-2.2456
-2.23406
-2.22153
-2.20798
-2.19339
-2.17772
-2.16094
-2.14302
-2.1239
-2.10354
-2.08192
-2.53202
-2.53117
-2.52954
-2.52706
-2.52376
-2.51963
-2.51465
-2.50884
-2.50216
-2.49462
-2.4862
-2.47687
-2.46662
-2.45543
-2.44327
-2.43012
-2.41595
-2.40071
-2.38439
-2.36693
-2.34829
-2.32842
-2.30729
-2.75421
-2.75336
-2.75191
-2.7495
-2.74631
-2.74233
-2.73756
-2.73197
-2.72557
-2.71834
-2.71025
-2.7013
-2.69147
-2.68072
-2.66905
-2.65641
-2.64279
-2.62814
-2.61243
-2.59562
-2.57766
-2.55851
-2.53811
-2.97967
-2.97886
-2.97737
-2.97508
-2.97206
-2.96828
-2.96375
-2.95845
-2.95237
-2.9455
-2.93782
-2.92933
-2.91999
-2.90979
-2.89871
-2.88671
-2.87377
-2.85986
-2.84494
-2.82897
-2.81191
-2.7937
-2.77429
-3.20816
-3.20732
-3.20587
-3.20371
-3.20086
-3.19731
-3.19305
-3.18808
-3.18237
-3.17593
-3.16873
-3.16077
-3.15201
-3.14246
-3.13207
-3.12083
-3.10871
-3.09568
-3.08172
-3.06677
-3.0508
-3.03376
-3.01561
-3.43931
-3.43862
-3.43721
-3.43519
-3.43252
-3.42923
-3.42527
-3.42066
-3.41538
-3.40942
-3.40276
-3.39539
-3.3873
-3.37847
-3.36888
-3.35851
-3.34734
-3.33533
-3.32246
-3.30871
-3.29403
-3.27838
-3.26173
-3.67303
-3.67244
-3.67111
-3.66924
-3.66679
-3.66379
-3.66018
-3.65597
-3.65115
-3.64572
-3.63965
-3.63295
-3.6256
-3.61757
-3.60886
-3.59945
-3.58932
-3.57845
-3.56682
-3.55441
-3.54118
-3.5271
-3.51216
-3.90904
-3.90852
-3.90731
-3.90564
-3.90344
-3.90074
-3.89751
-3.89374
-3.88943
-3.88457
-3.87915
-3.87317
-3.8666
-3.85945
-3.85169
-3.84332
-3.83432
-3.82468
-3.81438
-3.80342
-3.79176
-3.7794
-3.76631
-4.14707
-4.14662
-4.14558
-4.14413
-4.14221
-4.13984
-4.13702
-4.13372
-4.12995
-4.1257
-4.12096
-4.11573
-4.11
-4.10376
-4.097
-4.08973
-4.08192
-4.07357
-4.06468
-4.05523
-4.04522
-4.03465
-4.02351
-4.38689
-4.38651
-4.38565
-4.38444
-4.38282
-4.38081
-4.37841
-4.3756
-4.37239
-4.36878
-4.36475
-4.3603
-4.35544
-4.35014
-4.34442
-4.33827
-4.33168
-4.32466
-4.31719
-4.30929
-4.30096
-4.2922
-4.28302
-4.62825
-4.62797
-4.62729
-4.62634
-4.62502
-4.62338
-4.62142
-4.61912
-4.61648
-4.61351
-4.61021
-4.60657
-4.60258
-4.59825
-4.59358
-4.58856
-4.58321
-4.57751
-4.57147
-4.56511
-4.55842
-4.55144
-4.54416
-4.87104
-4.87087
-4.87034
-4.86965
-4.86862
-4.86736
-4.86583
-4.86405
-4.862
-4.85969
-4.85712
-4.85429
-4.85119
-4.84783
-4.84422
-4.84034
-4.8362
-4.83182
-4.82718
-4.82232
-4.81724
-4.81195
-4.80649
-5.11507
-5.11497
-5.11458
-5.11411
-5.11337
-5.11247
-5.11138
-5.1101
-5.10864
-5.10699
-5.10516
-5.10313
-5.10093
-5.09853
-5.09596
-5.0932
-5.09027
-5.08717
-5.0839
-5.08048
-5.07693
-5.07325
-5.06947
-5.35972
-5.3597
-5.35938
-5.35917
-5.35871
-5.35816
-5.3575
-5.35673
-5.35584
-5.35485
-5.35374
-5.35252
-5.35119
-5.34975
-5.3482
-5.34654
-5.34479
-5.34293
-5.34098
-5.33895
-5.33684
-5.33467
-5.33246
-5.60492
-5.60484
-5.60471
-5.60461
-5.60443
-5.60422
-5.60398
-5.60371
-5.6034
-5.60305
-5.60267
-5.60225
-5.6018
-5.6013
-5.60077
-5.60021
-5.59961
-5.59898
-5.59831
-5.59762
-5.59692
-5.59619
-5.59547
197.516
211.83
199.384
168.035
104.565
86.8455
74.1229
61.1993
23.5991
13.7927
9.92602
6.2275
2.11448
2.20358
2.31796
2.43736
1.98205
2.06603
2.16287
2.28838
1.84107
1.92253
2.02249
2.13161
1.69173
1.76762
1.87209
1.9757
1.54364
1.61939
1.72079
1.82139
1.40093
1.47492
1.56787
1.66376
1.2582
1.33147
1.4164
1.50639
1.10873
1.18137
1.26208
1.34823
0.952999
1.02545
1.10452
1.18891
0.792963
0.865474
0.944373
1.02845
0.629724
0.702733
0.782253
0.866939
0.463467
0.537415
0.618191
0.704332
0.294246
0.369543
0.452085
0.540486
0.122085
0.199001
0.283811
0.375188
-0.0532397
0.0256366
0.113156
0.208154
-0.231861
-0.150775
-0.0601607
0.0390258
-0.413987
-0.330508
-0.236486
-0.132621
-0.599864
-0.513878
-0.416223
-0.307279
-0.789768
-0.701251
-0.599834
-0.48551
-0.983995
-0.893035
-0.787853
-0.667969
-1.18286
-1.08967
-0.980878
-0.855423
-1.38667
-1.29163
-1.17957
-1.04874
-1.59576
-1.4994
-1.38461
-1.24889
-1.81041
-1.71344
-1.59675
-1.45693
-2.03087
-1.93423
-1.81673
-1.67408
-2.25732
-2.16212
-2.04529
-1.9016
-2.48982
-2.39739
-2.28308
-2.14075
-2.72833
-2.64014
-2.53054
-2.39268
-2.97264
-2.89023
-2.78773
-2.65819
-3.22235
-3.14722
-3.05426
-2.93729
-3.4769
-3.41034
-3.32917
-3.229
-3.73557
-3.6785
-3.61078
-3.53082
-3.99748
-3.95032
-3.8968
-3.83854
-4.2617
-4.2243
-4.18458
-4.14682
-4.5274
-4.49908
-4.47159
-4.45049
-4.79399
-4.77368
-4.75592
-4.7458
-5.06088
-5.0475
-5.03712
-5.03276
-5.32747
-5.31995
-5.31455
-5.3124
-5.59385
-5.59158
-5.58992
-5.58901
125.464
105.669
79.6268
49.3304
26.0575
4.20717
4.39512
4.96932
5.57162
5.97851
6.47896
9.62091
21.08
180.507
278.833
167.374
72.1074
156.031
467.9
46.7594
35.266
13.4435
3.42283
3.44706
3.82091
4.14643
4.72994
5.42538
5.61929
4.80527
7.68202
28.2754
117.746
258.282
195.499
169.338
310.451
566.643
2.7964
2.80994
2.96495
3.12871
3.26664
3.58351
3.82785
4.23981
4.64738
3.6779
-1.58272
-5.34402
26.3996
130.821
213.878
179.225
206.982
384.318
610.447
2.56161
2.65993
2.78454
2.96309
3.05428
3.23667
3.40874
3.6084
3.613
2.05458
-3.23713
-6.29995
7.87572
91.2887
172.227
159.273
163.076
330.944
550.622
2.44203
2.50488
2.6128
2.73484
2.82982
2.95139
3.05199
3.08654
2.81119
1.22808
-2.58516
-4.55868
0.0767731
32.5823
123.145
145.238
129.82
243.355
446.288
2.25647
2.33916
2.43817
2.53706
2.63127
2.72
2.77591
2.72396
2.32715
0.947778
-1.71428
-3.33588
-1.17009
0.764444
53.6146
112.449
116.07
222.749
358.905
2.08101
2.16931
2.26286
2.35368
2.43208
2.49353
2.51838
2.4377
2.06672
0.955777
-0.752855
-1.73701
-0.240314
0.416921
8.015
70.8228
126.409
232.875
310.164
1.91557
2.00221
2.08753
2.16716
2.23163
2.27237
2.27498
2.19016
1.90842
1.16202
0.101327
-0.377083
0.519815
0.927843
-0.290402
43.8429
136.994
239.514
287.574
1.75354
1.83513
1.91335
1.98354
2.03748
2.06632
2.05879
1.98399
1.78484
1.34409
0.740389
0.607354
1.11881
1.69484
1.71735
30.8876
140.001
237.29
270.971
1.5917
1.66888
1.74162
1.80541
1.85316
1.87693
1.86849
1.81061
1.67197
1.43706
1.15607
1.2113
1.60655
2.16224
2.05833
17.6256
133.791
227.33
253.928
1.43027
1.50415
1.57328
1.63354
1.67892
1.70282
1.6994
1.65901
1.56712
1.45103
1.37197
1.54016
1.87989
2.28449
2.33324
8.99261
122.651
218.339
236.453
1.26909
1.34113
1.40863
1.46789
1.51399
1.54181
1.54728
1.52528
1.47277
1.41451
1.43693
1.65271
1.94419
2.20092
2.2553
3.1954
106.928
206.003
217.601
1.10811
1.1798
1.24748
1.30793
1.35719
1.3914
1.40795
1.40471
1.38205
1.36107
1.41687
1.6136
1.83195
1.96656
1.78651
1.07562
87.8933
186.832
196.764
0.94727
1.01997
1.08941
1.15282
1.20702
1.24917
1.27772
1.29249
1.29529
1.29995
1.36182
1.49567
1.61802
1.64425
1.6575
3.31024
63.0475
160.877
174.852
0.786405
0.861314
0.933858
1.00163
1.06205
1.113
1.15359
1.18454
1.20825
1.23435
1.29335
1.36104
1.38222
1.33435
1.1364
1.7518
24.1328
127.597
153.264
0.625284
0.703444
0.780236
0.85351
0.921095
0.981295
1.03347
1.07853
1.11866
1.16055
1.21586
1.24807
1.21388
1.12624
0.868649
1.06474
5.77097
81.4505
131.317
0.463583
0.545915
0.627941
0.70769
0.783196
0.852927
0.916171
0.973468
1.02638
1.07833
1.13122
1.15867
1.11627
1.01307
0.846762
0.723629
1.76217
26.3828
109.837
0.300929
0.388258
0.476409
0.563499
0.647622
0.727171
0.801158
0.869488
0.932837
0.992051
1.0448
1.08048
1.05563
0.979435
0.867495
0.729781
0.884754
0.791817
91.0037
0.13689
0.229979
0.325099
0.420373
0.513818
0.603598
0.688291
0.76715
0.839942
0.905946
0.962422
1.00552
1.00326
0.964926
0.900741
0.805167
0.795194
-0.00232319
73.6522
-0.0290228
0.0705475
0.173454
0.277792
0.381367
0.481967
0.57767
0.667069
0.74927
0.822626
0.885684
0.934627
0.952457
0.94289
0.918998
0.831096
0.903085
0.688776
56.7548
-0.197372
-0.0906272
0.0208985
0.135244
0.249922
0.362217
0.469516
0.56977
0.66197
0.743972
0.814206
0.870681
0.905004
0.914047
0.931672
0.839525
0.985125
0.498228
40.076
-0.368802
-0.254224
-0.133182
-0.00777506
0.119204
0.244391
0.364131
0.476089
0.578557
0.669967
0.748988
0.814466
0.864304
0.880985
0.943848
0.828783
1.03717
0.50154
24.3585
-0.544058
-0.42102
-0.289531
-0.151803
-0.0111057
0.128943
0.261859
0.386078
0.499665
0.60125
0.690033
0.765395
0.832198
0.848309
0.95639
0.849378
1.05674
0.651393
9.91697
-0.724011
-0.591923
-0.448977
-0.297461
-0.140212
0.0150167
0.162867
0.300403
0.425797
0.538151
0.637274
0.722645
0.80675
0.821207
0.952794
0.889266
1.06655
0.752711
0.398529
-0.909695
-0.768046
-0.612604
-0.445464
-0.269248
-0.0964597
0.0678315
0.219589
0.357339
0.480879
0.590638
0.685842
0.785082
0.800808
0.94065
0.939401
1.07655
0.832876
-1.83782
-1.10235
-0.950766
-0.781733
-0.596409
-0.399082
-0.205067
-0.0225347
0.144168
0.294579
0.429551
0.550048
0.654798
0.765022
0.787361
0.921329
0.999538
1.02794
0.0141938
7.32599
-1.3034
-1.14183
-0.958315
-0.753064
-0.529005
-0.309867
-0.10728
0.0746228
0.237622
0.384144
0.515462
0.629273
0.745699
0.78417
0.887203
1.0425
0.715486
-8.67
-4.20963
-1.51456
-1.34339
-1.14476
-0.918615
-0.658885
-0.409432
-0.185265
0.0111234
0.186157
0.344353
0.48685
0.609112
0.725575
0.775052
0.849034
1.02855
0.929934
-7.5048
-7.35109
-1.73777
-1.55805
-1.344
-1.0912
-0.788627
-0.501695
-0.255346
-0.0473254
0.138743
0.30909
0.46409
0.595462
0.711094
0.767439
0.838551
0.964778
0.860949
-9.3449
-7.80373
-1.97526
-1.78918
-1.56091
-1.27666
-0.931444
-0.585053
-0.318668
-0.104657
0.0917592
0.27578
0.446147
0.589111
0.704448
0.756602
0.79051
0.803461
0.394534
-10.9577
-8.28345
-2.22945
-2.04073
-1.79881
-1.48287
-1.08822
-0.654714
-0.378784
-0.169698
0.0373715
0.238632
0.429816
0.590407
0.70995
0.753167
0.734683
0.611926
0.0574548
-9.08976
-7.69025
-2.50275
-2.3182
-2.06977
-1.73039
-1.2623
-0.718363
-0.452685
-0.238505
-0.0348778
0.192695
0.412267
0.599598
0.734335
0.775694
0.710593
0.552796
-1.44932
-5.83589
-6.15645
-2.79684
-2.62769
-2.39654
-2.0467
-1.45089
-0.870121
-0.609495
-0.389446
-0.157579
0.110323
0.374633
0.610743
0.780829
0.843812
0.733638
0.85645
-0.878523
-7.37527
-6.31457
-3.11146
-2.97065
-2.78572
-2.47498
-1.82688
-1.49569
-1.26927
-0.715591
-0.32959
-0.0146505
0.302053
0.607098
0.841453
0.939929
0.925558
1.12242
-0.1474
-6.11193
-6.15508
-3.44324
-3.34434
-3.23811
-3.07527
-2.49746
-2.71587
-3.14728
-1.9222
-0.70593
-0.194555
0.211576
0.578076
0.897466
1.0168
1.04875
0.165365
-1.2277
-5.77267
-6.01912
-3.78525
-3.74075
-3.73137
-3.82638
-3.84188
-3.96437
-3.96962
-3.0141
-2.11154
-1.23573
0.0114192
0.495449
0.955886
1.1303
1.05407
-0.61474
-2.64701
-5.72424
-5.98047
-4.12642
-4.13878
-4.21382
-4.60307
-5.3179
-5.16813
-4.62104
-4.34978
-3.62163
-3.09685
-0.792149
0.164335
0.948265
1.19391
0.259565
-5.98817
-7.20419
-6.08607
-6.09542
-4.45251
-4.49132
-4.63362
-5.08603
-5.85709
-5.86783
-5.56349
-5.01975
-4.41287
-4.22298
-2.31146
-0.551027
0.799579
1.24036
1.05332
-4.79295
-7.04497
-6.20045
-6.12799
-4.7585
-4.80148
-4.93233
-5.23691
-5.72192
-5.92042
-5.7348
-5.4953
-5.08616
-5.12387
-3.58438
-1.73713
0.253904
0.806943
0.168734
-2.85755
-6.04199
-6.13591
-6.08047
-5.04669
-5.08134
-5.16538
-5.30241
-5.58425
-5.83573
-5.86314
-6.03978
-5.79779
-6.55616
-5.35244
-4.15688
-2.03193
-1.57813
0.222366
-5.70224
-6.12462
-6.11585
-6.10567
-5.32172
-5.34458
-5.38357
-5.45452
-5.62023
-5.85301
-6.04571
-6.70176
-6.77586
-9.06843
-9.76608
-9.82334
-12.0011
-1.56093
-5.06005
-5.54334
-6.0265
-6.13978
-6.1325
-5.59002
-5.59447
-5.61238
-5.64759
-5.76291
-5.97685
-6.28594
-7.15047
-7.72516
-13.2179
-15.8219
-15.9242
-23.5741
-7.61017
-6.82954
-5.94251
-6.09244
-6.15279
-6.14572
)
;

boundaryField
{
    leftWall
    {
        type            calculated;
        value           nonuniform List<scalar> 
50
(
745.635
686.64
627.406
567.917
508.077
447.692
386.545
324.881
229.158
108.678
27.3268
1.9861
1.6846
1.5227
1.43511
1.30464
1.15817
1.00854
0.855793
0.698639
0.537712
0.37312
0.204841
0.0330446
-0.142433
-0.321522
-0.504233
-0.690588
-0.880601
-1.07428
-1.27165
-1.47268
-1.67739
-1.88573
-2.09766
-2.31313
-2.53202
-2.75421
-2.97967
-3.20816
-3.43931
-3.67303
-3.90904
-4.14707
-4.38689
-4.62825
-4.87104
-5.11507
-5.35972
-5.60492
)
;
    }
    rightWall
    {
        type            calculated;
        value           nonuniform List<scalar> 
50
(
988.284
915.559
826.083
725.153
623.03
535.74
477.491
450.132
467.9
566.643
610.447
550.622
446.288
358.905
310.164
287.574
270.971
253.928
236.453
217.601
196.764
174.852
153.264
131.317
109.837
91.0037
73.6522
56.7548
40.076
24.3585
9.91697
0.398529
-1.83782
7.32599
-4.20963
-7.35109
-7.80373
-8.28345
-7.69025
-6.15645
-6.31457
-6.15508
-6.01912
-5.98047
-6.09542
-6.12799
-6.08047
-6.10567
-6.1325
-6.14572
)
;
    }
    lowerWall
    {
        type            calculated;
        value           nonuniform List<scalar> 
62
(
775.065
774.963
775.056
775.274
775.468
775.603
775.733
775.963
776.364
776.953
777.694
778.551
779.495
780.498
781.531
782.556
783.515
784.335
784.847
785.069
785.238
785.78
786.62
757.19
698.011
639.97
582.1
523.85
465.213
405.584
344.702
260.113
274.421
261.941
230.538
275.26
256.891
247.249
240.52
228.081
216.462
208.953
183.33
283.835
268.907
232.877
197.858
194.702
209.912
241.776
322.458
453.202
514.22
552.842
617.938
663.56
711.606
734.738
657.21
607.613
792.054
1015.33
)
;
    }
    atmosphere
    {
        type            calculated;
        value           nonuniform List<scalar> 
46
(
-5.72904
-5.72904
-5.72904
-5.72904
-5.72904
-5.72904
-5.72904
-5.72904
-5.72904
-5.72904
-5.72904
-5.72904
-5.72904
-5.72904
-5.72904
-5.72904
-5.72904
-5.72904
-5.72904
-5.72904
-5.72904
-5.72904
-5.72904
-5.72904
-5.72904
-5.72904
-5.72904
-5.72904
-5.72904
-5.73294
-5.75531
-5.86213
-6.05823
-6.41257
-7.10249
-7.31744
-15.4295
-20.8723
-18.3356
-46.8456
-6.54789
-6.30615
-6.04931
-6.04136
-6.15488
-6.14939
)
;
    }
    defaultFaces
    {
        type            empty;
    }
}


// ************************************************************************* //
