/*--------------------------------*- C++ -*----------------------------------*\
| =========                 |                                                 |
| \\      /  F ield         | OpenFOAM: The Open Source CFD Toolbox           |
|  \\    /   O peration     | Version:  2206                                  |
|   \\  /    A nd           | Website:  www.openfoam.com                      |
|    \\/     M anipulation  |                                                 |
\*---------------------------------------------------------------------------*/
FoamFile
{
    version     2.0;
    format      ascii;
    arch        "LSB;label=32;scalar=64";
    class       surfaceScalarField;
    location    "0.675";
    object      phi;
}
// * * * * * * * * * * * * * * * * * * * * * * * * * * * * * * * * * * * * * //

dimensions      [0 3 -1 0 0 0 0];

oriented        oriented;

internalField   nonuniform List<scalar> 
4432
(
-1.03018e-06
1.03018e-06
-1.19914e-06
1.68968e-07
-6.28059e-07
-5.71081e-07
3.32997e-07
-9.61055e-07
1.40451e-06
-1.07151e-06
2.36227e-06
-9.57754e-07
3.08113e-06
-7.18867e-07
3.52581e-06
-4.44677e-07
3.72392e-06
-1.98109e-07
3.73364e-06
-9.72065e-09
3.61344e-06
1.20203e-07
3.40602e-06
2.07422e-07
3.12381e-06
2.82213e-07
2.74343e-06
3.80376e-07
2.21348e-06
5.29951e-07
1.47187e-06
7.41611e-07
4.74757e-07
9.97115e-07
-7.67909e-07
1.24267e-06
-2.16489e-06
1.39698e-06
-3.27677e-06
1.11189e-06
-3.37976e-06
1.02983e-07
-2.27013e-06
-1.10963e-06
-2.27013e-06
-1.14035e-06
2.17053e-06
-1.30751e-06
3.36128e-07
-7.5997e-07
-1.11861e-06
2.05966e-07
-1.92699e-06
1.31142e-06
-2.17696e-06
2.31636e-06
-1.96268e-06
3.09128e-06
-1.49379e-06
3.59337e-06
-9.46761e-07
3.84841e-06
-4.53145e-07
3.92301e-06
-8.43173e-08
3.89066e-06
1.52553e-07
3.81051e-06
2.87574e-07
3.71838e-06
3.74339e-07
3.63048e-06
4.68278e-07
3.53693e-06
6.23506e-07
3.38715e-06
8.91389e-07
3.10198e-06
1.28228e-06
2.60508e-06
1.73957e-06
1.92284e-06
2.07922e-06
1.14367e-06
1.89105e-06
1.61861e-07
1.08479e-06
-4.34886e-07
-5.1288e-07
-2.70502e-06
-1.20454e-06
3.37507e-06
-1.47477e-06
6.06362e-07
-9.92059e-07
-1.60132e-06
-5.87592e-08
-2.86028e-06
1.06389e-06
-3.29961e-06
2.11121e-06
-3.01e-06
2.93279e-06
-2.31536e-06
3.48622e-06
-1.50019e-06
3.78889e-06
-7.55818e-07
3.89499e-06
-1.90414e-07
3.87734e-06
1.70198e-07
3.79697e-06
3.67951e-07
3.70208e-06
4.69232e-07
3.6243e-06
5.46049e-07
3.5898e-06
6.58008e-07
3.63245e-06
8.48737e-07
3.7643e-06
1.15044e-06
3.94265e-06
1.56121e-06
4.02763e-06
1.99424e-06
3.71215e-06
2.20653e-06
2.8792e-06
1.91775e-06
1.6115e-06
7.54817e-07
-1.09352e-06
-1.32563e-06
4.7007e-06
-1.75522e-06
1.03595e-06
-1.50125e-06
-1.85529e-06
-7.34092e-07
-3.62744e-06
4.76797e-07
-4.5105e-06
1.68753e-06
-4.22074e-06
2.61001e-06
-3.23784e-06
3.23395e-06
-2.12412e-06
3.60841e-06
-1.13028e-06
3.78969e-06
-3.71692e-07
3.83959e-06
1.20305e-07
3.81634e-06
3.91196e-07
3.76976e-06
5.15815e-07
3.73189e-06
5.83917e-07
3.72061e-06
6.69294e-07
3.74983e-06
8.19514e-07
3.84317e-06
1.05711e-06
4.019e-06
1.38537e-06
4.22138e-06
1.79187e-06
4.21425e-06
2.21366e-06
3.64061e-06
2.49138e-06
2.14187e-06
2.25356e-06
1.04835e-06
-1.52878e-06
6.22948e-06
-2.35259e-06
1.85977e-06
-2.71804e-06
-1.48984e-06
-2.28498e-06
-4.0605e-06
-9.05454e-07
-5.89002e-06
7.15424e-07
-5.84161e-06
1.9445e-06
-4.46692e-06
2.73e-06
-2.90962e-06
3.2173e-06
-1.61759e-06
3.50953e-06
-6.63913e-07
3.67e-06
-4.01687e-08
3.74988e-06
3.11314e-07
3.79365e-06
4.72047e-07
3.83644e-06
5.41128e-07
3.89636e-06
6.09378e-07
3.97463e-06
7.41244e-07
4.05964e-06
9.72095e-07
4.13477e-06
1.31024e-06
4.1774e-06
1.74924e-06
4.10068e-06
2.29037e-06
3.63485e-06
2.95722e-06
2.32224e-06
3.56617e-06
3.37059e-06
-1.83217e-06
8.06166e-06
-3.33579e-06
3.36339e-06
-4.48275e-06
-3.42882e-07
-4.39699e-06
-4.14626e-06
-2.99201e-06
-7.295e-06
-1.04004e-06
-7.79359e-06
6.8861e-07
-6.19556e-06
1.81669e-06
-4.03769e-06
2.52478e-06
-2.32568e-06
2.99019e-06
-1.12932e-06
3.30947e-06
-3.59454e-07
3.54221e-06
7.85806e-08
3.72028e-06
2.93978e-07
3.88064e-06
3.80769e-07
4.04568e-06
4.44335e-07
4.22103e-06
5.65888e-07
4.3893e-06
8.03833e-07
4.505e-06
1.19453e-06
4.49525e-06
1.759e-06
4.27365e-06
2.51197e-06
3.68577e-06
3.5451e-06
2.36987e-06
4.88208e-06
5.74046e-06
-2.01396e-06
1.00756e-05
-4.0615e-06
5.41093e-06
-5.50957e-06
1.10519e-06
-5.65577e-06
-4.00005e-06
-4.67327e-06
-8.2775e-06
-2.95172e-06
-9.51513e-06
-1.04482e-06
-8.10246e-06
4.74896e-07
-5.5574e-06
1.50561e-06
-3.35639e-06
2.21399e-06
-1.8377e-06
2.73988e-06
-8.85342e-07
3.15951e-06
-3.41049e-07
3.51884e-06
-6.53455e-08
3.84311e-06
5.64963e-08
4.15759e-06
1.29858e-07
4.47316e-06
2.50316e-07
4.78175e-06
4.95244e-07
5.04803e-06
9.28256e-07
5.18939e-06
1.61763e-06
5.10298e-06
2.59837e-06
4.60426e-06
4.04382e-06
3.48302e-06
6.00332e-06
9.22347e-06
-1.7951e-06
1.18707e-05
-3.51015e-06
7.12599e-06
-4.37493e-06
1.96997e-06
-4.64891e-06
-3.72607e-06
-4.46171e-06
-8.4647e-06
-3.678e-06
-1.02988e-05
-2.33002e-06
-9.45044e-06
-8.29004e-07
-7.05842e-06
4.18201e-07
-4.6036e-06
1.35062e-06
-2.77012e-06
2.065e-06
-1.59972e-06
2.65928e-06
-9.3533e-07
3.19566e-06
-6.01721e-07
3.70555e-06
-4.53401e-07
4.20725e-06
-3.71838e-07
4.71279e-06
-2.55228e-07
5.22041e-06
-1.23685e-08
5.70127e-06
4.47389e-07
6.07183e-06
1.24708e-06
6.18002e-06
2.49019e-06
5.66353e-06
4.56031e-06
4.20001e-06
7.46683e-06
1.34235e-05
2.15789e-05
-2.15789e-05
-6.98678e-06
2.85657e-05
-6.01771e-05
5.31904e-05
-8.69317e-05
2.67546e-05
-8.61229e-05
-8.08793e-07
-7.44674e-05
-1.16555e-05
-5.32924e-05
-2.1175e-05
-1.60426e-05
-3.72498e-05
1.53938e-05
-3.14365e-05
2.07705e-05
-5.37664e-06
3.97923e-06
1.67913e-05
-1.85622e-05
2.25414e-05
-2.53785e-05
6.81632e-06
-8.79974e-06
-1.65788e-05
-1.25878e-05
3.78806e-06
-4.79338e-05
3.5346e-05
-7.03488e-05
2.2415e-05
-4.67698e-05
-2.3579e-05
-4.67698e-05
-5.32912e-06
-1.62498e-05
-4.29617e-05
6.61983e-05
-8.27436e-05
9.29722e-05
-8.23871e-05
2.63981e-05
-5.52072e-05
-2.79886e-05
-2.4409e-05
-4.24537e-05
1.76451e-05
-6.32292e-05
5.76088e-05
-7.72134e-05
7.46552e-05
-4.84829e-05
7.44265e-05
-5.14791e-06
5.41257e-05
3.70921e-05
1.84702e-05
5.81969e-05
-1.53109e-05
4.05973e-05
-3.09402e-05
-9.49449e-07
-4.57834e-05
1.86313e-05
-6.8307e-05
5.78696e-05
-7.17422e-05
2.58502e-05
-4.28795e-05
-5.24418e-05
-8.96493e-05
-2.34238e-05
7.17397e-06
-4.40561e-05
8.68306e-05
-3.21879e-05
8.1104e-05
4.21155e-06
-1.00014e-05
2.79896e-05
-5.17666e-05
5.83477e-05
-7.28119e-05
8.02044e-05
-8.50859e-05
9.079e-05
-8.77989e-05
9.68038e-05
-5.44967e-05
9.56246e-05
-3.9687e-06
8.28502e-05
4.98664e-05
5.44824e-05
8.65648e-05
1.12871e-05
8.37926e-05
-2.68054e-05
3.71431e-05
-4.85202e-05
4.0346e-05
-6.33496e-05
7.2699e-05
-6.50859e-05
2.75865e-05
-4.06851e-05
-7.68425e-05
-0.000130334
-2.30237e-05
3.01977e-05
-1.81386e-05
8.19455e-05
2.32502e-05
3.97152e-05
5.40425e-05
-4.07937e-05
7.18392e-05
-6.95633e-05
8.53699e-05
-8.63425e-05
9.47086e-05
-9.44246e-05
0.000100028
-9.31179e-05
0.000102868
-5.7337e-05
0.000102339
-3.43999e-06
9.44907e-05
5.77148e-05
7.5921e-05
0.000105135
3.88229e-05
0.000120891
-7.85952e-06
8.38255e-05
-3.68849e-05
6.93715e-05
-4.91408e-05
8.49549e-05
-5.4659e-05
3.31047e-05
-3.58723e-05
-9.56291e-05
-0.000166207
-7.38952e-06
3.75872e-05
2.17324e-05
5.28236e-05
6.33393e-05
-1.89169e-06
7.47504e-05
-5.22048e-05
8.35285e-05
-7.83414e-05
9.04814e-05
-9.32953e-05
9.71281e-05
-0.000101071
0.000100363
-9.63528e-05
0.000101422
-5.83964e-05
0.000100524
-2.54138e-06
9.63333e-05
6.19053e-05
8.52966e-05
0.000116171
5.80959e-05
0.000148091
1.31078e-05
0.000128814
-1.93902e-05
0.000101869
-3.11816e-05
9.67463e-05
-3.6877e-05
3.88001e-05
-2.67375e-05
-0.000105769
-0.000192944
1.21021e-05
2.54851e-05
4.97834e-05
1.51423e-05
7.15247e-05
-2.36329e-05
7.68286e-05
-5.75087e-05
8.41841e-05
-8.56969e-05
9.15568e-05
-0.000100668
9.43151e-05
-0.00010383
8.74078e-05
-8.94454e-05
6.91025e-05
-4.00911e-05
6.62179e-05
3.43249e-07
8.3397e-05
4.47261e-05
8.53828e-05
0.000114185
6.93246e-05
0.00016415
3.45583e-05
0.00016358
1.45372e-06
0.000134974
-1.19849e-05
0.000110185
-1.60399e-05
4.28551e-05
-1.38399e-05
-0.000107969
-0.000206784
1.41673e-05
1.13178e-05
4.44313e-05
-1.51217e-05
6.29953e-05
-4.21969e-05
7.60132e-05
-7.05266e-05
8.60605e-05
-9.57442e-05
8.89414e-05
-0.000103549
8.12539e-05
-9.61422e-05
5.55333e-05
-6.37248e-05
3.26993e-05
-1.72573e-05
3.76724e-05
-4.62982e-06
4.72137e-05
3.51847e-05
7.16759e-05
8.97232e-05
7.31076e-05
0.000162718
5.21461e-05
0.000184541
2.48715e-05
0.000162249
9.33632e-06
0.00012572
4.52905e-06
4.76624e-05
2.05231e-06
-0.000105492
-0.000204732
3.1959e-05
-2.06411e-05
5.35159e-05
-3.66787e-05
6.93782e-05
-5.80591e-05
7.98695e-05
-8.1018e-05
8.41138e-05
-9.99884e-05
7.59168e-05
-9.5352e-05
4.88214e-05
-6.90467e-05
1.48334e-05
-2.97368e-05
-1.4657e-05
1.2233e-05
-2.12396e-05
1.95304e-06
-9.6639e-06
2.36088e-05
2.87509e-05
5.13084e-05
6.78199e-05
0.000123649
6.50323e-05
0.000187329
4.73595e-05
0.000179921
3.29603e-05
0.000140119
2.40333e-05
5.65895e-05
1.15033e-05
-9.29621e-05
-0.000193228
1.77202e-06
1.00987e-05
1.51312e-06
7.38489e-06
1.80758e-06
1.6755e-06
1.84987e-06
-3.76835e-06
4.17067e-08
-6.65653e-06
-2.58315e-06
-7.67398e-06
-3.79282e-06
-8.24078e-06
-3.07536e-06
-7.77588e-06
-1.30984e-06
-6.36913e-06
7.076e-07
-4.78755e-06
2.60184e-06
-3.49396e-06
4.3474e-06
-2.68089e-06
6.00194e-06
-2.25626e-06
7.62914e-06
-2.0806e-06
9.29218e-06
-2.03488e-06
1.10525e-05
-2.01557e-06
1.29791e-05
-1.93898e-06
1.51758e-05
-1.74926e-06
1.78074e-05
-1.38456e-06
2.11241e-05
-8.26508e-07
2.54955e-05
1.88979e-07
3.20597e-05
9.02573e-07
3.99795e-06
4.14852e-05
7.54877e-06
2.54993e-06
1.45032e-05
4.30496e-07
2.04096e-05
-4.23094e-06
2.13127e-05
-4.67147e-06
1.72406e-05
-2.5844e-06
1.05083e-05
-9.41689e-07
4.10295e-06
-1.83542e-06
-2.37497e-08
-3.64918e-06
-1.44723e-06
-4.94565e-06
-7.28512e-07
-5.50627e-06
1.104e-06
-5.32647e-06
3.21461e-06
-4.79151e-06
5.33062e-06
-4.37226e-06
7.49085e-06
-4.24083e-06
9.73917e-06
-4.2832e-06
1.21215e-05
-4.39792e-06
1.47157e-05
-4.53319e-06
1.76344e-05
-4.66791e-06
2.10211e-05
-4.77126e-06
2.5051e-05
-4.85639e-06
3.00886e-05
-4.84871e-06
3.62892e-05
-5.29794e-06
-4.93513e-06
4.52222e-05
1.12846e-05
-8.73469e-06
2.0545e-05
-8.82987e-06
1.93809e-05
-3.06684e-06
1.34115e-05
1.29794e-06
1.08088e-05
1.82666e-08
1.18763e-05
-2.00922e-06
1.29171e-05
-2.87618e-06
1.01553e-05
-8.8737e-07
6.50912e-06
-1.29949e-06
4.06176e-06
-3.05891e-06
3.00628e-06
-4.27099e-06
2.85378e-06
-4.639e-06
3.47889e-06
-4.99737e-06
4.92982e-06
-5.69176e-06
7.04765e-06
-6.40103e-06
9.63185e-06
-6.98211e-06
1.25561e-05
-7.45748e-06
1.5798e-05
-7.90979e-06
1.94902e-05
-8.46343e-06
2.36849e-05
-9.05107e-06
2.83266e-05
-9.4904e-06
3.40591e-05
-1.10305e-05
-1.42242e-05
4.33482e-05
-2.83788e-05
1.96441e-05
-5.46309e-05
1.74219e-05
-5.99838e-05
2.28579e-06
-3.7895e-05
-2.0791e-05
-5.76163e-06
-3.21151e-05
2.0818e-05
-2.85889e-05
2.99875e-05
-1.20458e-05
3.35737e-05
-4.47378e-06
3.19253e-05
3.48711e-07
2.22926e-05
6.57359e-06
9.97677e-06
8.04469e-06
-8.68241e-07
6.20592e-06
-7.07495e-06
1.2093e-06
-9.55853e-06
-3.20818e-06
-9.16925e-06
-6.79028e-06
-7.08352e-06
-9.06782e-06
-4.06194e-06
-1.04791e-05
-4.74416e-07
-1.14974e-05
3.53797e-06
-1.24759e-05
8.443e-06
-1.39562e-05
1.39294e-05
-1.49769e-05
1.93737e-05
-1.64748e-05
-1.68942e-05
2.20435e-05
-1.11116e-05
3.07556e-05
-2.33983e-05
2.97085e-05
-2.37789e-05
2.66634e-06
-2.18808e-05
-2.26892e-05
-2.60033e-05
-2.79926e-05
-3.09445e-05
-2.36478e-05
-2.90517e-05
-1.39385e-05
-2.36489e-05
-9.87661e-06
-1.63821e-05
-6.91798e-06
-1.03921e-05
5.83736e-07
-5.74252e-06
3.39527e-06
-1.64539e-06
2.10907e-06
1.5438e-06
-1.97954e-06
4.07755e-06
-5.74155e-06
5.1423e-06
-7.85468e-06
5.19441e-06
-9.11964e-06
4.85179e-06
-1.01362e-05
4.59738e-06
-1.12428e-05
4.56496e-06
-1.24433e-05
4.55789e-06
-1.3949e-05
5.11792e-06
-1.5537e-05
5.76318e-06
-1.71201e-05
-1.82519e-05
7.12079e-06
1.06109e-05
2.01445e-05
1.12528e-05
2.90662e-05
8.36664e-06
5.55219e-06
-8.84325e-08
-1.42344e-05
-1.18617e-05
-1.62196e-05
-1.97612e-05
-1.57486e-05
-2.01088e-05
-1.35912e-05
-1.96267e-05
-1.0359e-05
-1.89703e-05
-7.57466e-06
-1.30474e-05
-5.3394e-06
-6.05693e-06
-3.59529e-06
-1.1852e-07
-3.82936e-06
2.65214e-06
-4.75016e-06
2.5192e-06
-5.60856e-06
1.2521e-06
-6.58756e-06
-6.86084e-08
-7.79895e-06
-9.70131e-07
-9.23475e-06
-1.40466e-06
-1.08083e-05
-1.33356e-06
-1.25145e-05
-6.36117e-07
-1.46466e-05
8.84482e-07
-1.70577e-05
2.64129e-06
-1.88771e-05
-1.99543e-05
4.34354e-06
5.21856e-06
1.49258e-05
1.49265e-05
1.93581e-05
1.97171e-05
7.61534e-07
1.48009e-05
-9.31823e-06
9.90629e-06
-1.13251e-05
3.99204e-06
-9.83437e-06
-1.45165e-06
-8.14763e-06
-4.93337e-06
-6.87734e-06
-6.59894e-06
-5.90916e-06
-6.83343e-06
-5.1049e-06
-5.94122e-06
-4.48742e-06
-5.33385e-06
-4.43659e-06
-5.2692e-06
-4.81463e-06
-5.47068e-06
-5.40692e-06
-5.87214e-06
-6.18599e-06
-6.41573e-06
-7.25527e-06
-7.04425e-06
-8.60614e-06
-7.80224e-06
-1.00502e-05
-8.34966e-06
-1.1967e-05
-7.82268e-06
-1.51735e-05
-6.40941e-06
-1.8471e-05
-4.94519e-06
-2.03414e-05
-2.03423e-05
-4.55726e-06
-7.202e-07
1.56459e-05
9.34907e-06
9.28864e-06
1.12831e-05
-1.17269e-06
7.6542e-06
-5.6895e-06
2.71985e-06
-6.39089e-06
-1.09276e-06
-6.02196e-06
-3.50976e-06
-5.73085e-06
-4.93466e-06
-5.45266e-06
-5.75426e-06
-5.08973e-06
-6.13955e-06
-4.71972e-06
-6.19522e-06
-4.43179e-06
-6.3242e-06
-4.3076e-06
-6.7653e-06
-4.3735e-06
-7.51464e-06
-4.65759e-06
-8.4679e-06
-5.23276e-06
-9.58962e-06
-6.13358e-06
-1.09786e-05
-7.21715e-06
-1.26889e-05
-8.33986e-06
-1.41027e-05
-1.05532e-05
-1.439e-05
-1.48862e-05
-1.45093e-05
-1.83518e-05
-1.5483e-05
-1.93677e-05
-1.82151e-05
-1.76102e-05
-3.17264e-07
1.59631e-05
3.29526e-06
5.67601e-06
4.40392e-06
-2.28142e-06
3.15642e-06
-4.44209e-06
1.19482e-06
-4.42939e-06
-4.9578e-07
-4.33148e-06
-1.91915e-06
-4.30762e-06
-3.1664e-06
-4.20555e-06
-4.22476e-06
-4.03147e-06
-5.11166e-06
-3.83286e-06
-5.89161e-06
-3.65182e-06
-6.67233e-06
-3.52685e-06
-7.54462e-06
-3.5012e-06
-8.56368e-06
-3.63856e-06
-9.78518e-06
-4.01129e-06
-1.12966e-05
-4.62221e-06
-1.31927e-05
-5.32094e-06
-1.5402e-05
-6.13052e-06
-1.76367e-05
-8.31845e-06
-1.98174e-05
-1.27055e-05
-2.24868e-05
-1.56824e-05
-2.58695e-05
-1.59851e-05
-1.43972e-05
-2.96873e-05
9.28407e-07
1.50346e-05
2.74203e-06
3.86223e-06
2.98886e-06
-2.5284e-06
2.08464e-06
-3.538e-06
8.58244e-07
-3.20314e-06
-4.15642e-07
-3.05776e-06
-1.65423e-06
-3.0692e-06
-2.79148e-06
-3.06844e-06
-3.8136e-06
-3.00945e-06
-4.74198e-06
-2.90453e-06
-5.61532e-06
-2.7785e-06
-6.47896e-06
-2.66324e-06
-7.38057e-06
-2.59968e-06
-8.38326e-06
-2.63599e-06
-9.57812e-06
-2.81653e-06
-1.10563e-05
-3.14409e-06
-1.28149e-05
-3.56219e-06
-1.48001e-05
-4.14528e-06
-1.73953e-05
-5.72321e-06
-2.13368e-05
-8.76397e-06
-2.55554e-05
-1.14638e-05
-2.97794e-05
-1.1761e-05
-1.04568e-05
-3.37197e-05
1.1284e-06
1.39061e-05
2.06618e-06
2.92433e-06
1.73425e-06
-2.19658e-06
7.7882e-07
-2.58268e-06
-1.93039e-07
-2.2314e-06
-1.09884e-06
-2.15209e-06
-1.9795e-06
-2.18866e-06
-2.84651e-06
-2.20152e-06
-3.68781e-06
-2.16818e-06
-4.49628e-06
-2.09606e-06
-5.27442e-06
-2.00037e-06
-6.03146e-06
-1.90626e-06
-6.78866e-06
-1.84261e-06
-7.59042e-06
-1.83439e-06
-8.50656e-06
-1.9005e-06
-9.59416e-06
-2.0565e-06
-1.08425e-05
-2.31377e-06
-1.22648e-05
-2.72287e-06
-1.44205e-05
-3.56747e-06
-1.81249e-05
-5.05949e-06
-2.25277e-05
-7.06087e-06
-2.65595e-05
-7.72913e-06
-7.34368e-06
-2.96726e-05
7.635e-07
1.31425e-05
1.39064e-06
2.29703e-06
9.00756e-07
-1.70684e-06
7.91956e-08
-1.76126e-06
-6.97225e-07
-1.45513e-06
-1.44188e-06
-1.40756e-06
-2.18662e-06
-1.44401e-06
-2.92511e-06
-1.46307e-06
-3.64406e-06
-1.44923e-06
-4.33412e-06
-1.40599e-06
-4.99223e-06
-1.34229e-06
-5.62018e-06
-1.27842e-06
-6.22648e-06
-1.23649e-06
-6.8288e-06
-1.23226e-06
-7.45781e-06
-1.2716e-06
-8.15106e-06
-1.36324e-06
-8.93898e-06
-1.52575e-06
-9.86807e-06
-1.79368e-06
-1.12365e-05
-2.19897e-06
-1.34906e-05
-2.80525e-06
-1.68254e-05
-3.72597e-06
-2.01003e-05
-4.45407e-06
-4.79291e-06
-2.2651e-05
4.85508e-07
1.2657e-05
7.6861e-07
2.01375e-06
2.2402e-07
-1.1624e-06
-4.89007e-07
-1.04836e-06
-1.14997e-06
-7.94279e-07
-1.78828e-06
-7.69337e-07
-2.42671e-06
-8.05622e-07
-3.06095e-06
-8.28817e-07
-3.68035e-06
-8.2977e-07
-4.27635e-06
-8.09934e-07
-4.84484e-06
-7.73813e-07
-5.38899e-06
-7.34408e-07
-5.91247e-06
-7.13216e-07
-6.41954e-06
-7.2539e-07
-6.91661e-06
-7.74616e-07
-7.42296e-06
-8.56856e-07
-7.97745e-06
-9.71171e-07
-8.64211e-06
-1.12893e-06
-9.5087e-06
-1.33231e-06
-1.0725e-05
-1.58882e-06
-1.25196e-05
-1.93123e-06
-1.46597e-05
-2.31374e-06
-2.66609e-06
-1.67865e-05
2.13969e-07
1.24429e-05
2.63195e-07
1.96434e-06
-2.80536e-07
-6.18823e-07
-9.00508e-07
-4.28519e-07
-1.48026e-06
-2.14636e-07
-2.0476e-06
-2.02074e-07
-2.61561e-06
-2.37625e-07
-3.18096e-06
-2.63416e-07
-3.73659e-06
-2.74037e-07
-4.27605e-06
-2.70409e-07
-4.79625e-06
-2.53637e-07
-5.2998e-06
-2.31016e-07
-5.795e-06
-2.18244e-07
-6.28807e-06
-2.32508e-07
-6.78093e-06
-2.81817e-07
-7.27741e-06
-3.60323e-07
-7.79413e-06
-4.54366e-07
-8.36925e-06
-5.53757e-07
-9.04394e-06
-6.57575e-07
-9.86482e-06
-7.67824e-07
-1.09104e-05
-8.85532e-07
-1.22046e-05
-1.01932e-06
-1.18272e-06
-1.36879e-05
-1.5275e-08
1.2458e-05
-1.40933e-07
2.08984e-06
-6.44054e-07
-1.1582e-07
-1.18867e-06
1.15991e-07
-1.70994e-06
3.0656e-07
-2.22658e-06
3.14518e-07
-2.74529e-06
2.81106e-07
-3.26374e-06
2.55122e-07
-3.77773e-06
2.4007e-07
-4.28291e-06
2.34857e-07
-4.77662e-06
2.40044e-07
-5.26134e-06
2.53541e-07
-5.74632e-06
2.66529e-07
-6.24371e-06
2.64727e-07
-6.76148e-06
2.35939e-07
-7.30045e-06
1.78723e-07
-7.85949e-06
1.04735e-07
-8.44549e-06
3.22695e-08
-9.07792e-06
-2.51084e-08
-9.78089e-06
-6.47307e-08
-1.05767e-05
-8.95991e-08
-1.14876e-05
-1.08289e-07
-1.43413e-07
-1.25269e-05
-1.92529e-07
1.26505e-05
-4.0956e-07
2.30677e-06
-8.78206e-07
3.52729e-07
-1.36872e-06
6.064e-07
-1.84815e-06
7.85899e-07
-2.32699e-06
7.93315e-07
-2.80937e-06
7.63511e-07
-3.29397e-06
7.39817e-07
-3.77861e-06
7.24846e-07
-4.26082e-06
7.1715e-07
-4.73834e-06
7.17527e-07
-5.21168e-06
7.26729e-07
-5.68732e-06
7.41981e-07
-6.17766e-06
7.54964e-07
-6.6958e-06
7.54106e-07
-7.24832e-06
7.31338e-07
-7.83258e-06
6.89033e-07
-8.44152e-06
6.41192e-07
-9.07293e-06
6.06339e-07
-9.73397e-06
5.96471e-07
-1.04351e-05
6.11695e-07
-1.11867e-05
6.43381e-07
6.70898e-07
-1.2001e-05
-3.21311e-07
1.29717e-05
-5.90446e-07
2.57587e-06
-1.01825e-06
7.80489e-07
-1.46651e-06
1.05458e-06
-1.91263e-06
1.23192e-06
-2.36195e-06
1.24257e-06
-2.81617e-06
1.21774e-06
-3.27465e-06
1.19838e-06
-3.73643e-06
1.18676e-06
-4.20039e-06
1.18119e-06
-4.66494e-06
1.18205e-06
-5.12912e-06
1.19077e-06
-5.59515e-06
1.20786e-06
-6.07076e-06
1.23053e-06
-6.56813e-06
1.25155e-06
-7.09836e-06
1.26166e-06
-7.66501e-06
1.25568e-06
-8.26207e-06
1.23819e-06
-8.87899e-06
1.22327e-06
-9.50925e-06
1.22691e-06
-1.01546e-05
1.25725e-06
-1.08219e-05
1.31085e-06
1.37085e-06
-1.15218e-05
-4.01618e-07
1.33733e-05
-6.89774e-07
2.86407e-06
-1.08681e-06
1.17752e-06
-1.50438e-06
1.47208e-06
-1.92458e-06
1.65202e-06
-2.34961e-06
1.66751e-06
-2.78084e-06
1.64896e-06
-3.21784e-06
1.63546e-06
-3.66016e-06
1.6292e-06
-4.10733e-06
1.62845e-06
-4.55854e-06
1.63324e-06
-5.01254e-06
1.64467e-06
-5.46891e-06
1.66413e-06
-5.93033e-06
1.69198e-06
-6.40419e-06
1.72553e-06
-6.90067e-06
1.75823e-06
-7.42752e-06
1.78249e-06
-7.98467e-06
1.79522e-06
-8.56388e-06
1.80246e-06
-9.15445e-06
1.81761e-06
-9.75059e-06
1.85354e-06
-1.03523e-05
1.91274e-06
1.98611e-06
-1.09674e-05
-4.4452e-07
1.38178e-05
-7.40761e-07
3.16042e-06
-1.11012e-06
1.54691e-06
-1.50399e-06
1.86589e-06
-1.90291e-06
2.05081e-06
-2.3076e-06
2.07208e-06
-2.71892e-06
2.06023e-06
-3.13701e-06
2.0536e-06
-3.56148e-06
2.05378e-06
-3.99205e-06
2.05909e-06
-4.42828e-06
2.06947e-06
-4.8693e-06
2.08561e-06
-5.31394e-06
2.10871e-06
-5.76204e-06
2.14015e-06
-6.2166e-06
2.18024e-06
-6.6835e-06
2.22523e-06
-7.17057e-06
2.26949e-06
-7.68177e-06
2.30628e-06
-8.21363e-06
2.33429e-06
-8.75692e-06
2.36098e-06
-9.30913e-06
2.40578e-06
-9.85291e-06
2.45663e-06
2.53109e-06
-1.03976e-05
-4.56984e-07
1.42749e-05
-7.48181e-07
3.4518e-06
-1.10213e-06
1.90091e-06
-1.47904e-06
2.24274e-06
-1.86059e-06
2.43221e-06
-2.24764e-06
2.45899e-06
-2.64171e-06
2.45424e-06
-3.04265e-06
2.45458e-06
-3.45015e-06
2.46139e-06
-3.86397e-06
2.47301e-06
-4.28381e-06
2.48932e-06
-4.70905e-06
2.51079e-06
-5.13853e-06
2.53818e-06
-5.57103e-06
2.57275e-06
-6.01075e-06
2.62013e-06
-6.45317e-06
2.66773e-06
-6.90757e-06
2.72382e-06
-7.37894e-06
2.77752e-06
-7.86772e-06
2.82309e-06
-8.3682e-06
2.86157e-06
-8.86448e-06
2.90201e-06
-9.36144e-06
2.95359e-06
3.02063e-06
-9.85063e-06
-4.49001e-07
1.4724e-05
-7.32536e-07
3.73555e-06
-1.07682e-06
2.24526e-06
-1.44132e-06
2.60717e-06
-1.80823e-06
2.79898e-06
-2.17973e-06
2.83035e-06
-2.55776e-06
2.8322e-06
-2.94236e-06
2.83924e-06
-3.33325e-06
2.85241e-06
-3.7302e-06
2.87006e-06
-4.13296e-06
2.89212e-06
-4.54118e-06
2.91898e-06
-4.9542e-06
2.95119e-06
-5.37098e-06
2.98962e-06
-5.78646e-06
3.03574e-06
-6.2084e-06
3.08972e-06
-6.6357e-06
3.15101e-06
-7.0725e-06
3.21424e-06
-7.52133e-06
3.27204e-06
-7.97987e-06
3.32033e-06
-8.44086e-06
3.36296e-06
-8.89666e-06
3.40931e-06
3.46562e-06
-9.34129e-06
-4.2927e-07
1.51534e-05
-7.06408e-07
4.01291e-06
-1.04531e-06
2.58423e-06
-1.39948e-06
2.96127e-06
-1.75297e-06
3.15233e-06
-2.10982e-06
3.18706e-06
-2.47255e-06
3.19489e-06
-2.84128e-06
3.20803e-06
-3.21567e-06
3.22695e-06
-3.59549e-06
3.25002e-06
-3.98049e-06
3.27717e-06
-4.37028e-06
3.30876e-06
-4.76425e-06
3.34515e-06
-5.16136e-06
3.3868e-06
-5.56016e-06
3.43464e-06
-5.96036e-06
3.48992e-06
-6.36237e-06
3.55288e-06
-6.76861e-06
3.6204e-06
-7.18203e-06
3.68566e-06
-7.60318e-06
3.7418e-06
-8.02806e-06
3.78788e-06
-8.44897e-06
3.83013e-06
3.87505e-06
-8.85812e-06
-4.00107e-07
1.55537e-05
-6.76115e-07
4.28912e-06
-1.01296e-06
2.92113e-06
-1.35793e-06
3.30619e-06
-1.69827e-06
3.49257e-06
-2.04098e-06
3.52968e-06
-2.38901e-06
3.54291e-06
-2.74238e-06
3.56149e-06
-3.10068e-06
3.58542e-06
-3.46364e-06
3.61315e-06
-3.83101e-06
3.64463e-06
-4.20242e-06
3.68019e-06
-4.57733e-06
3.72006e-06
-4.95493e-06
3.76446e-06
-5.33408e-06
3.81388e-06
-5.71354e-06
3.86933e-06
-6.09254e-06
3.9317e-06
-6.47195e-06
3.99969e-06
-6.85421e-06
4.06811e-06
-7.24154e-06
4.1295e-06
-7.63297e-06
4.1794e-06
-8.02296e-06
4.22003e-06
4.25595e-06
-8.4037e-06
-3.71005e-07
1.59248e-05
-6.47488e-07
4.56576e-06
-9.80506e-07
3.25418e-06
-1.31436e-06
3.64e-06
-1.64154e-06
3.81968e-06
-1.97075e-06
3.85884e-06
-2.30488e-06
3.87705e-06
-2.6437e-06
3.90044e-06
-2.98673e-06
3.92864e-06
-3.33365e-06
3.96028e-06
-3.68423e-06
3.99532e-06
-4.03808e-06
4.03407e-06
-4.39467e-06
4.07667e-06
-4.75329e-06
4.12315e-06
-5.11298e-06
4.17366e-06
-5.47245e-06
4.22879e-06
-5.8304e-06
4.2895e-06
-6.18664e-06
4.35582e-06
-6.54244e-06
4.42407e-06
-6.90063e-06
4.48802e-06
-7.26264e-06
4.54151e-06
-7.62589e-06
4.58321e-06
4.61487e-06
-7.98475e-06
-3.428e-07
1.62678e-05
-6.1606e-07
4.83911e-06
-9.39282e-07
3.57741e-06
-1.25865e-06
3.95936e-06
-1.57255e-06
4.13355e-06
-1.88901e-06
4.17529e-06
-2.21013e-06
4.19822e-06
-2.53541e-06
4.22585e-06
-2.86427e-06
4.25771e-06
-3.19639e-06
4.29261e-06
-3.53152e-06
4.33059e-06
-3.86932e-06
4.37189e-06
-4.20924e-06
4.4166e-06
-4.55064e-06
4.46461e-06
-4.89274e-06
4.51588e-06
-5.23449e-06
4.57062e-06
-5.57444e-06
4.62941e-06
-5.91106e-06
4.69242e-06
-6.24542e-06
4.75859e-06
-6.57997e-06
4.82285e-06
-6.91731e-06
4.87893e-06
-7.25717e-06
4.92304e-06
4.95387e-06
-7.59615e-06
-3.16877e-07
1.65847e-05
-5.70322e-07
5.09259e-06
-8.69809e-07
3.87691e-06
-1.17294e-06
4.26251e-06
-1.4749e-06
4.43554e-06
-1.7799e-06
4.48033e-06
-2.08892e-06
4.50732e-06
-2.40151e-06
4.53858e-06
-2.71716e-06
4.57357e-06
-3.03561e-06
4.61126e-06
-3.35662e-06
4.65172e-06
-3.67988e-06
4.69517e-06
-4.00492e-06
4.7416e-06
-4.33112e-06
4.79084e-06
-4.65782e-06
4.8427e-06
-4.98422e-06
4.89716e-06
-5.30919e-06
4.95446e-06
-5.6317e-06
5.01502e-06
-5.95121e-06
5.0783e-06
-6.26948e-06
5.14133e-06
-6.58947e-06
5.19892e-06
-6.91257e-06
5.24613e-06
5.27955e-06
-7.23817e-06
-2.9643e-07
1.68812e-05
-5.02674e-07
5.29881e-06
-7.61346e-07
4.1356e-06
-1.04647e-06
4.5477e-06
-1.33828e-06
4.72744e-06
-1.63285e-06
4.77498e-06
-1.9302e-06
4.80476e-06
-2.23035e-06
4.83886e-06
-2.53312e-06
4.87652e-06
-2.83834e-06
4.91666e-06
-3.14589e-06
4.95938e-06
-3.45554e-06
5.00483e-06
-3.76695e-06
5.05295e-06
-4.07967e-06
5.10354e-06
-4.39326e-06
5.15636e-06
-4.70721e-06
5.21124e-06
-5.02078e-06
5.26818e-06
-5.33294e-06
5.32735e-06
-5.643e-06
5.3886e-06
-5.95189e-06
5.45038e-06
-6.26212e-06
5.50907e-06
-6.57579e-06
5.55979e-06
5.59837e-06
-6.89443e-06
-2.75669e-07
1.71568e-05
-4.02804e-07
5.42592e-06
-6.12083e-07
4.34493e-06
-8.82729e-07
4.81847e-06
-1.16641e-06
5.01124e-06
-1.45105e-06
5.05971e-06
-1.73661e-06
5.09039e-06
-2.024e-06
5.12636e-06
-2.31348e-06
5.16614e-06
-2.60508e-06
5.20842e-06
-2.89883e-06
5.25324e-06
-3.19467e-06
5.30068e-06
-3.49245e-06
5.35068e-06
-3.792e-06
5.40304e-06
-4.09314e-06
5.45753e-06
-4.39573e-06
5.51392e-06
-4.69943e-06
5.57202e-06
-5.00362e-06
5.63174e-06
-5.30772e-06
5.69295e-06
-5.61216e-06
5.75495e-06
-5.91879e-06
5.81554e-06
-6.22984e-06
5.87077e-06
5.91703e-06
-6.5482e-06
-2.507e-07
1.74075e-05
-2.80603e-07
5.45584e-06
-4.41465e-07
4.50589e-06
-7.01171e-07
5.07834e-06
-9.78723e-07
5.28894e-06
-1.2533e-06
5.33438e-06
-1.52661e-06
5.36375e-06
-1.80059e-06
5.40039e-06
-2.07598e-06
5.44163e-06
-2.35302e-06
5.48558e-06
-2.63216e-06
5.53247e-06
-2.91328e-06
5.58185e-06
-3.19651e-06
5.63393e-06
-3.48198e-06
5.68853e-06
-3.76993e-06
5.7455e-06
-4.06053e-06
5.80457e-06
-4.35386e-06
5.86544e-06
-4.64981e-06
5.92785e-06
-4.94817e-06
5.99156e-06
-5.24932e-06
6.05621e-06
-5.55467e-06
6.12069e-06
-5.8662e-06
6.18217e-06
6.23873e-06
-6.18755e-06
-2.10537e-07
1.7618e-05
-1.49087e-07
5.39445e-06
-2.79037e-07
4.636e-06
-5.34086e-07
5.33357e-06
-8.02631e-07
5.5576e-06
-1.06457e-06
5.59638e-06
-1.32418e-06
5.62338e-06
-1.58404e-06
5.66029e-06
-1.84492e-06
5.70255e-06
-2.10718e-06
5.7479e-06
-2.37056e-06
5.7959e-06
-2.63588e-06
5.84723e-06
-2.90338e-06
5.90151e-06
-3.17336e-06
5.95862e-06
-3.44667e-06
6.01892e-06
-3.72373e-06
6.08169e-06
-4.00478e-06
6.14651e-06
-4.29018e-06
6.21334e-06
-4.58029e-06
6.28188e-06
-4.87579e-06
6.35185e-06
-5.17805e-06
6.42278e-06
-5.48857e-06
6.49252e-06
6.56232e-06
-5.8118e-06
-1.44052e-07
1.77621e-05
-1.62806e-08
5.26679e-06
-1.44009e-07
4.76391e-06
-3.96708e-07
5.58641e-06
-6.52912e-07
5.81388e-06
-8.99466e-07
5.84295e-06
-1.14396e-06
5.86789e-06
-1.38874e-06
5.9051e-06
-1.63417e-06
5.94802e-06
-1.88059e-06
5.99435e-06
-2.12865e-06
6.04397e-06
-2.37846e-06
6.09708e-06
-2.6305e-06
6.15367e-06
-2.88535e-06
6.21366e-06
-3.14275e-06
6.27651e-06
-3.40367e-06
6.34272e-06
-3.66952e-06
6.41236e-06
-3.94108e-06
6.48493e-06
-4.21923e-06
6.5602e-06
-4.50542e-06
6.63824e-06
-4.80166e-06
6.71895e-06
-5.11119e-06
6.80187e-06
6.8873e-06
-5.43587e-06
-3.74655e-08
1.77996e-05
1.04929e-07
5.12456e-06
-4.37536e-08
4.91275e-06
-2.91763e-07
5.83448e-06
-5.28568e-07
6.05067e-06
-7.56868e-07
6.07126e-06
-9.85116e-07
6.0962e-06
-1.21435e-06
6.13443e-06
-1.44427e-06
6.17802e-06
-1.67507e-06
6.22515e-06
-1.90702e-06
6.27588e-06
-2.14035e-06
6.33038e-06
-2.37532e-06
6.38871e-06
-2.61233e-06
6.45088e-06
-2.85247e-06
6.5169e-06
-3.09647e-06
6.58688e-06
-3.34496e-06
6.66087e-06
-3.59884e-06
6.7388e-06
-3.85915e-06
6.82065e-06
-4.12731e-06
6.90663e-06
-4.4052e-06
6.99686e-06
-4.69475e-06
7.09127e-06
7.19237e-06
-4.99961e-06
1.2313e-07
1.76765e-05
2.3336e-07
5.0145e-06
4.35122e-08
5.10267e-06
-1.97297e-07
6.07522e-06
-4.13069e-07
6.26635e-06
-6.23771e-07
6.28195e-06
-8.3657e-07
6.30911e-06
-1.05076e-06
6.34881e-06
-1.26558e-06
6.39299e-06
-1.48101e-06
6.44063e-06
-1.69723e-06
6.49203e-06
-1.91437e-06
6.54741e-06
-2.1326e-06
6.60694e-06
-2.35229e-06
6.67072e-06
-2.57404e-06
6.7389e-06
-2.79864e-06
6.81168e-06
-3.02696e-06
6.88924e-06
-3.25991e-06
6.97174e-06
-3.49857e-06
7.05942e-06
-3.74441e-06
7.15271e-06
-3.99945e-06
7.252e-06
-4.26599e-06
7.35769e-06
7.47302e-06
-4.5465e-06
3.63099e-07
1.73135e-05
3.94713e-07
4.98304e-06
1.44182e-07
5.35317e-06
-9.21297e-08
6.31135e-06
-2.91615e-07
6.46568e-06
-4.89116e-07
6.47944e-06
-6.89413e-07
6.50957e-06
-8.90326e-07
6.54998e-06
-1.09141e-06
6.59431e-06
-1.29234e-06
6.64164e-06
-1.49327e-06
6.69289e-06
-1.69431e-06
6.74829e-06
-1.89555e-06
6.80808e-06
-2.09722e-06
6.87244e-06
-2.29973e-06
6.94163e-06
-2.50377e-06
7.01596e-06
-2.71018e-06
7.09576e-06
-2.9198e-06
7.18139e-06
-3.13357e-06
7.27328e-06
-3.3527e-06
7.37205e-06
-3.57893e-06
7.47836e-06
-3.81444e-06
7.59313e-06
7.71967e-06
-4.06101e-06
6.53048e-07
1.66605e-05
5.80923e-07
5.05528e-06
2.62449e-07
5.67152e-06
2.87861e-08
6.54479e-06
-1.61685e-07
6.65598e-06
-3.52212e-07
6.66997e-06
-5.44043e-07
6.70157e-06
-7.3487e-07
6.74106e-06
-9.23533e-07
6.7832e-06
-1.11096e-06
6.82917e-06
-1.29725e-06
6.8791e-06
-1.48246e-06
6.93333e-06
-1.66666e-06
6.99212e-06
-1.84997e-06
7.05575e-06
-2.03268e-06
7.12452e-06
-2.21533e-06
7.19886e-06
-2.39861e-06
7.27922e-06
-2.58318e-06
7.36605e-06
-2.76966e-06
7.45985e-06
-2.95879e-06
7.56135e-06
-3.15168e-06
7.67135e-06
-3.34975e-06
7.79115e-06
7.92356e-06
-3.55359e-06
9.33596e-07
1.5727e-05
7.53033e-07
5.23592e-06
3.80721e-07
6.0437e-06
1.51727e-07
6.77361e-06
-3.53362e-08
6.84294e-06
-2.22597e-07
6.85724e-06
-4.0802e-07
6.88711e-06
-5.89751e-07
6.92296e-06
-7.6829e-07
6.96188e-06
-9.43646e-07
7.00458e-06
-1.11618e-06
7.05155e-06
-1.28613e-06
7.10311e-06
-1.45364e-06
7.15948e-06
-1.61885e-06
7.22094e-06
-1.78198e-06
7.28782e-06
-1.9434e-06
7.36055e-06
-2.10356e-06
7.43961e-06
-2.26278e-06
7.52539e-06
-2.4212e-06
7.61834e-06
-2.57927e-06
7.71952e-06
-2.73714e-06
7.82928e-06
-2.89493e-06
7.94889e-06
8.08089e-06
-3.05217e-06
1.17596e-06
1.45512e-05
8.80512e-07
5.53143e-06
4.77002e-07
6.44714e-06
2.55549e-07
6.995e-06
6.88189e-08
7.02967e-06
-1.1638e-07
7.04246e-06
-2.96465e-07
7.06722e-06
-4.70481e-07
7.097e-06
-6.39187e-07
7.13059e-06
-8.03164e-07
7.16852e-06
-9.62905e-07
7.21122e-06
-1.11878e-06
7.25887e-06
-1.27105e-06
7.31167e-06
-1.41999e-06
7.36992e-06
-1.56579e-06