/*--------------------------------*- C++ -*----------------------------------*\
| =========                 |                                                 |
| \\      /  F ield         | OpenFOAM: The Open Source CFD Toolbox           |
|  \\    /   O peration     | Version:  2206                                  |
|   \\  /    A nd           | Website:  www.openfoam.com                      |
|    \\/     M anipulation  |                                                 |
\*---------------------------------------------------------------------------*/
FoamFile
{
    version     2.0;
    format      ascii;
    arch        "LSB;label=32;scalar=64";
    class       volVectorField;
    location    "0.675";
    object      U;
}
// * * * * * * * * * * * * * * * * * * * * * * * * * * * * * * * * * * * * * //

dimensions      [0 1 -1 0 0 0 0];

internalField   nonuniform List<vector> 
2268
(
(-0.00929149 0.00557002 0)
(-0.0153059 0.00104633 0)
(-0.0115084 -0.00298486 0)
(-0.00224328 -0.00502077 0)
(0.00986478 -0.00556069 0)
(0.0216715 -0.00491531 0)
(0.0314944 -0.003618 0)
(0.0383151 -0.00215485 0)
(0.0420094 -0.000854371 0)
(0.0431297 0.000157289 0)
(0.0423529 0.00089134 0)
(0.0403811 0.00145147 0)
(0.0376186 0.00203453 0)
(0.033997 0.00288647 0)
(0.0290524 0.00418205 0)
(0.0220763 0.00592708 0)
(0.0122773 0.00785027 0)
(-0.000739552 0.00931246 0)
(-0.0166914 0.00875167 0)
(-0.0338026 0.00262702 0)
(-0.0430046 -0.00848111 0)
(-0.0347356 -0.0185317 0)
(-0.0138716 -0.0197965 0)
(-0.0113684 0.0172258 0)
(-0.0160041 0.00257542 0)
(-0.0130401 -0.00913054 0)
(-0.00373791 -0.0154602 0)
(0.00859324 -0.0173446 0)
(0.020874 -0.0155652 0)
(0.0313067 -0.0117567 0)
(0.0387904 -0.00735802 0)
(0.0431409 -0.0034117 0)
(0.0448654 -0.000427496 0)
(0.0449343 0.00154534 0)
(0.0441501 0.00279085 0)
(0.043068 0.00375273 0)
(0.0420288 0.00494025 0)
(0.0411249 0.0068107 0)
(0.0400549 0.00966584 0)
(0.0380255 0.0135587 0)
(0.0338663 0.0179278 0)
(0.0265621 0.0209865 0)
(0.015921 0.019075 0)
(0.00833317 0.00960702 0)
(-0.00475145 -0.0086141 0)
(-0.00347708 -0.0328981 0)
(-0.0113194 0.0299016 0)
(-0.0175001 0.00488738 0)
(-0.0153736 -0.0146612 0)
(-0.00675423 -0.0258475 0)
(0.00549463 -0.0293438 0)
(0.0183146 -0.0265524 0)
(0.0292388 -0.0202947 0)
(0.0372889 -0.012966 0)
(0.0422327 -0.00631692 0)
(0.0444541 -0.00132645 0)
(0.0447631 0.00182691 0)
(0.0440315 0.00355741 0)
(0.0429183 0.00451051 0)
(0.0418663 0.00536358 0)
(0.0411721 0.00674908 0)
(0.0411597 0.00922839 0)
(0.0421885 0.013185 0)
(0.0441874 0.0183751 0)
(0.046104 0.023197 0)
(0.0449493 0.0239768 0)
(0.0392494 0.0168563 0)
(0.0267051 -0.00052788 0)
(0.0127153 -0.0222842 0)
(-0.0116949 0.0435852 0)
(-0.0198055 0.00861017 0)
(-0.0195719 -0.0192545 0)
(-0.0141583 -0.0355132 0)
(-0.00228692 -0.0418719 0)
(0.012728 -0.0385361 0)
(0.0251865 -0.0296982 0)
(0.0340641 -0.019386 0)
(0.0397793 -0.00999873 0)
(0.0428612 -0.00283334 0)
(0.0439919 0.00177893 0)
(0.0439523 0.0042631 0)
(0.0434233 0.00546486 0)
(0.042881 0.00626072 0)
(0.0425842 0.00734402 0)
(0.0426571 0.00917147 0)
(0.0432535 0.0119698 0)
(0.0446546 0.0158008 0)
(0.0470141 0.0203182 0)
(0.0489279 0.0239426 0)
(0.0472001 0.0240888 0)
(0.0360757 0.0169269 0)
(0.015767 0.000155305 0)
(-0.0125452 0.0588671 0)
(-0.0234726 0.0147672 0)
(-0.0299336 -0.0192943 0)
(-0.031389 -0.0412533 0)
(-0.0201805 -0.0546469 0)
(-0.000771424 -0.0525571 0)
(0.0164155 -0.0404905 0)
(0.0277482 -0.0267235 0)
(0.03477 -0.0145989 0)
(0.0390467 -0.00534898 0)
(0.0414524 0.000749262 0)
(0.0426332 0.00408485 0)
(0.0431927 0.00559462 0)
(0.0436102 0.00631673 0)
(0.044181 0.00714265 0)
(0.0449987 0.00866244 0)
(0.045971 0.0111372 0)
(0.0468698 0.0145472 0)
(0.0475084 0.0188026 0)
(0.0475236 0.0238396 0)
(0.0460207 0.0292136 0)
(0.0373058 0.0311945 0)
(0.0185335 0.0224581 0)
(-0.0135257 0.0767169 0)
(-0.0296641 0.0270018 0)
(-0.0471252 -0.0106056 0)
(-0.0544853 -0.0432816 0)
(-0.0446413 -0.0694629 0)
(-0.0236884 -0.0714227 0)
(-0.000600283 -0.0552795 0)
(0.0159332 -0.03622 0)
(0.0259467 -0.0206507 0)
(0.0322235 -0.00926185 0)
(0.0364531 -0.00173747 0)
(0.0394198 0.00255357 0)
(0.0416183 0.00454449 0)
(0.0434619 0.00537341 0)
(0.0452892 0.00608095 0)
(0.0472555 0.00745871 0)
(0.0492983 0.0100088 0)
(0.0510632 0.013945 0)
(0.0518629 0.0192638 0)
(0.0506684 0.0260917 0)
(0.0468771 0.0354599 0)
(0.0378785 0.0474295 0)
(0.0183967 0.0529581 0)
(-0.013282 0.0967465 0)
(-0.0350341 0.0452329 0)
(-0.0593736 0.00326407 0)
(-0.0665775 -0.0454375 0)
(-0.0603557 -0.0868178 0)
(-0.0450477 -0.0954955 0)
(-0.0228789 -0.0774028 0)
(-0.0016574 -0.0510301 0)
(0.0127715 -0.030037 0)
(0.0221658 -0.0155815 0)
(0.0288073 -0.00632405 0)
(0.033987 -0.000946622 0)
(0.0383043 0.00167581 0)
(0.0421257 0.00275032 0)
(0.0457363 0.00344586 0)
(0.0493423 0.00473588 0)
(0.0529766 0.0073634 0)
(0.0564092 0.0118645 0)
(0.0590833 0.0186419 0)
(0.0597152 0.0276528 0)
(0.0572273 0.0398667 0)
(0.0485917 0.0547987 0)
(0.0302706 0.0724054 0)
(-0.0120037 0.117776 0)
(-0.0323994 0.0681105 0)
(-0.0505331 0.0181597 0)
(-0.0518487 -0.0455247 0)
(-0.0512238 -0.0977832 0)
(-0.0475406 -0.114889 0)
(-0.0362838 -0.100772 0)
(-0.0179874 -0.0706332 0)
(-0.00126375 -0.0433428 0)
(0.0110611 -0.024513 0)
(0.0200525 -0.0129382 0)
(0.0272434 -0.00641158 0)
(0.0335652 -0.00307037 0)
(0.0394673 -0.00151198 0)
(0.0452216 -0.000555887 0)
(0.0509978 0.000834723 0)
(0.0568299 0.0036337 0)
(0.062639 0.00874198 0)
(0.0677486 0.0174119 0)
(0.0715767 0.0307209 0)
(0.0691064 0.0518451 0)
(0.0657122 0.0835475 0)
(0.0229502 0.138837 0)
(0.216544 -0.0991116 0)
(0.284996 -0.000727946 0)
(-0.474393 0.0702114 0)
(-0.951304 0.0236862 0)
(-1.00504 0.011056 0)
(-0.960692 -0.000856617 0)
(-0.800623 -0.0172629 0)
(-0.369676 -0.0483512 0)
(0.0810339 -0.0480034 0)
(0.229646 0.023562 0)
(0.198209 0.0689141 0)
(-0.0822111 0.0438367 0)
(-0.356741 -0.0357271 0)
(-0.197913 -0.0838297 0)
(0.0306232 -0.0321836 0)
(-0.36902 0.0703125 0)
(-0.818221 0.0518931 0)
(-0.702309 -0.0478755 0)
(-0.25184 -0.0960116 0)
(-0.032301 -0.0943625 0)
(-0.0971186 0.17631 0)
(-0.952439 0.258257 0)
(-1.07225 0.123855 0)
(-0.713286 -0.0284801 0)
(-0.50832 -0.0929945 0)
(-0.102904 -0.159189 0)
(0.565884 -0.248745 0)
(0.807552 -0.176161 0)
(0.87955 -0.0472125 0)
(0.792333 0.0841677 0)
(0.470384 0.151951 0)
(-0.0530337 0.0864766 0)
(-0.273738 -0.0517139 0)
(-0.391622 0.0543679 0)
(-0.71656 0.181978 0)
(-0.933314 0.0910701 0)
(-0.638672 -0.148454 0)
(-0.23473 -0.258255 0)
(-0.191703 -0.00402584 0)
(-0.386881 0.311989 0)
(-0.725263 0.371591 0)
(-0.0659956 0.0720187 0)
(0.205706 -0.155045 0)
(0.512138 -0.234401 0)
(0.806451 -0.294397 0)
(1.00583 -0.318452 0)
(1.08867 -0.201038 0)
(1.10864 -0.0109076 0)
(1.05702 0.161743 0)
(0.854608 0.2663 0)
(0.394449 0.235471 0)
(-0.105009 0.0528013 0)
(-0.465297 0.113213 0)
(-0.721564 0.242162 0)
(-0.81951 0.0802139 0)
(-0.618611 -0.256928 0)
(-0.199672 -0.414687 0)
(-0.218624 0.0769983 0)
(-0.365967 0.358844 0)
(-0.11916 0.274249 0)
(0.581473 -0.124027 0)
(0.768115 -0.242873 0)
(0.903992 -0.301944 0)
(1.03078 -0.338032 0)
(1.12026 -0.339039 0)
(1.16625 -0.223298 0)
(1.17814 -0.015122 0)
(1.14348 0.207971 0)
(1.02978 0.371001 0)
(0.711818 0.387798 0)
(0.203946 0.224332 0)
(-0.355639 0.196503 0)
(-0.566057 0.294715 0)
(-0.66865 0.107824 0)
(-0.5391 -0.34102 0)
(-0.157315 -0.563142 0)
(-0.132166 0.130598 0)
(-0.0700701 0.271965 0)
(0.529094 0.0680795 0)
(0.873837 -0.173508 0)
(0.915058 -0.269389 0)
(0.986768 -0.331178 0)
(1.07385 -0.364487 0)
(1.13827 -0.363166 0)
(1.14617 -0.259044 0)
(1.15177 -0.0541635 0)
(1.141 0.159849 0)
(1.07791 0.394215 0)
(0.881207 0.505978 0)
(0.473387 0.398738 0)
(-0.140856 0.304426 0)
(-0.35652 0.335782 0)
(-0.457932 0.12362 0)
(-0.385658 -0.398096 0)
(-0.0992523 -0.683963 0)
(-0.0542427 0.116273 0)
(0.307233 0.111587 0)
(0.801225 -0.0728724 0)
(0.844582 -0.192634 0)
(0.913292 -0.297913 0)
(1.00744 -0.360854 0)
(1.0777 -0.389864 0)
(1.06306 -0.364675 0)
(0.897895 -0.213187 0)
(0.630897 -0.0119106 0)
(0.936509 0.207782 0)
(1.03611 0.414418 0)
(0.948019 0.578116 0)
(0.669239 0.54756 0)
(0.138815 0.434293 0)
(-0.134276 0.376792 0)
(-0.211852 0.146556 0)
(-0.178332 -0.407863 0)
(-0.0317355 -0.759627 0)
(-0.0478967 0.106912 0)
(0.364505 -0.00869579 0)
(0.628099 -0.124031 0)
(0.799261 -0.236353 0)
(0.940815 -0.338539 0)
(1.01917 -0.388673 0)
(0.999568 -0.387782 0)
(0.818196 -0.307867 0)
(0.488434 -0.0906153 0)
(0.231044 0.0613246 0)
(0.420861 0.17344 0)
(0.80352 0.398992 0)
(0.931393 0.619709 0)
(0.792782 0.656939 0)
(0.410923 0.555811 0)
(0.117535 0.430425 0)
(0.0289251 0.170132 0)
(0.0567008 -0.394229 0)
(0.0380378 -0.778723 0)
(0.224916 -0.0509746 0)
(0.501615 -0.114414 0)
(0.712041 -0.190974 0)
(0.86496 -0.285776 0)
(0.964381 -0.368917 0)
(0.937841 -0.382681 0)
(0.76102 -0.32242 0)
(0.390935 -0.169265 0)
(-0.0394465 0.0321587 0)
(-0.304041 -0.0407251 0)
(-0.403646 0.0987747 0)
(0.12972 0.261486 0)
(0.773103 0.572283 0)
(0.857177 0.707863 0)
(0.645292 0.650606 0)
(0.399332 0.497313 0)
(0.279562 0.189925 0)
(0.249232 -0.367721 0)
(0.103649 -0.744866 0)
(0.00352545 0.13889 0)
(0.0119278 0.0827234 0)
(0.00187252 0.019418 0)
(0.014852 -0.0406594 0)
(0.00849096 -0.0849983 0)
(-0.00737955 -0.105854 0)
(-0.0212967 -0.106257 0)
(-0.0209217 -0.0871928 0)
(-0.0127706 -0.0615158 0)
(-0.00156975 -0.0398555 0)
(0.00917473 -0.0250766 0)
(0.0188807 -0.01669 0)
(0.0278479 -0.0127302 0)
(0.0366093 -0.0112307 0)
(0.0454219 -0.0107057 0)
(0.0546266 -0.0100004 0)
(0.0644861 -0.00814278 0)
(0.075752 -0.00431161 0)
(0.0883356 0.0027195 0)
(0.105835 0.013568 0)
(0.123703 0.0326885 0)
(0.160745 0.0527203 0)
(0.183318 0.116979 0)
(0.0229372 0.0851709 0)
(0.052039 0.0863199 0)
(0.0984391 0.0244329 0)
(0.121226 -0.0270386 0)
(0.113515 -0.044047 0)
(0.0770529 -0.0479246 0)
(0.0332598 -0.06192 0)
(0.00726997 -0.0738931 0)
(-0.00747881 -0.0716161 0)
(-0.00802255 -0.0621241 0)
(0.000241888 -0.0508695 0)
(0.0118688 -0.0414536 0)
(0.0229687 -0.035401 0)
(0.0344129 -0.0326923 0)
(0.0462361 -0.0321159 0)
(0.0586486 -0.0324612 0)
(0.0719523 -0.032805 0)
(0.0866581 -0.0327134 0)
(0.103553 -0.0318507 0)
(0.123186 -0.0304832 0)
(0.147594 -0.0271506 0)
(0.175936 -0.0290448 0)
(0.21761 -0.0164998 0)
(0.0238784 -0.0202458 0)
(0.0984764 -0.0730204 0)
(0.110982 -0.110735 0)
(0.0844728 -0.0862144 0)
(0.0698761 -0.0232709 0)
(0.0579976 0.0218115 0)
(0.0638796 0.0147631 0)
(0.0665995 -0.0149726 0)
(0.0462844 -0.0441956 0)
(0.0266108 -0.0612838 0)
(0.0175135 -0.0654998 0)
(0.0133106 -0.0641605 0)
(0.0158791 -0.0628948 0)
(0.0218428 -0.0634634 0)
(0.0317077 -0.064785 0)
(0.0444708 -0.0661532 0)
(0.0593426 -0.0675144 0)
(0.0759028 -0.0689297 0)
(0.0944011 -0.0705901 0)
(0.11546 -0.0727963 0)
(0.1392 -0.0754367 0)
(0.166393 -0.0819163 0)
(0.204601 -0.0894884 0)
(-0.0351759 -0.0892865 0)
(-0.296948 -0.0293171 0)
(-0.358155 0.0837845 0)
(-0.24464 0.091789 0)
(-0.105512 0.0155896 0)
(0.0470895 -0.0668083 0)
(0.125853 -0.0963705 0)
(0.200488 -0.0177052 0)
(0.202615 0.0202174 0)
(0.161147 0.010114 0)
(0.096159 -0.00731372 0)
(0.014813 -0.0154041 0)
(-0.0267727 -0.0278534 0)
(-0.049884 -0.0499241 0)
(-0.0520205 -0.0732367 0)
(-0.0445925 -0.0885791 0)
(-0.0303268 -0.0993173 0)
(-0.0120949 -0.107911 0)
(0.00813898 -0.117536 0)
(0.0322919 -0.129485 0)
(0.059469 -0.137377 0)
(0.0875202 -0.159309 0)
(0.113413 -0.199353 0)
(0.0396295 0.373501 0)
(-0.181103 0.266705 0)
(-0.11232 -0.0747194 0)
(-0.0929351 -0.447706 0)
(-0.139094 -0.59548 0)
(-0.159698 -0.45655 0)
(-0.170583 -0.144287 0)
(-0.140177 -0.053124 0)
(-0.117097 -0.0151376 0)
(-0.0633951 0.104485 0)
(-0.0374721 0.146898 0)
(-0.0235101 0.119544 0)
(0.00279055 0.0436601 0)
(0.0176033 -0.0296288 0)
(0.0264117 -0.0741442 0)
(0.0285392 -0.0991409 0)
(0.0270222 -0.115248 0)
(0.0249231 -0.127752 0)
(0.0242897 -0.139794 0)
(0.0242069 -0.158095 0)
(0.0259589 -0.172029 0)
(0.0287839 -0.189176 0)
(0.0337866 -0.186278 0)
(0.0887986 0.346592 0)
(0.0130001 0.420779 0)
(0.0735264 0.137163 0)
(0.0461582 -0.0944016 0)
(-0.0426148 -0.108744 0)
(-0.0928483 -0.142085 0)
(-0.111032 -0.154212 0)
(-0.109867 -0.130638 0)
(-0.107306 -0.106912 0)
(-0.0899353 -0.0839605 0)
(-0.0518539 -0.0552795 0)
(-0.0136721 -0.0607742 0)
(0.0101101 -0.0730475 0)
(0.0159681 -0.0778326 0)
(0.0107435 -0.0831789 0)
(0.00299324 -0.0917838 0)
(-0.0031847 -0.10369 0)
(-0.00681763 -0.118348 0)
(-0.0079138 -0.13459 0)
(-0.00615592 -0.151634 0)
(-0.000308023 -0.17119 0)
(0.0088697 -0.187134 0)
(0.0200344 -0.203891 0)
(0.0111038 0.148596 0)
(0.0514112 0.277916 0)
(0.100668 0.0259477 0)
(0.0999934 -0.155283 0)
(0.0682871 -0.194326 0)
(0.0366129 -0.166474 0)
(0.00527603 -0.126659 0)
(-0.0204167 -0.0959608 0)
(-0.0332454 -0.0723618 0)
(-0.0374087 -0.0497308 0)
(-0.0345938 -0.0372014 0)
(-0.0298933 -0.0363652 0)
(-0.0280862 -0.0442796 0)
(-0.0284522 -0.0557438 0)
(-0.030191 -0.0681734 0)
(-0.0328191 -0.0820331 0)
(-0.0359402 -0.0981379 0)
(-0.0394941 -0.11546 0)
(-0.043773 -0.13481 0)
(-0.0445845 -0.163111 0)
(-0.0390862 -0.195677 0)
(-0.0300927 -0.219388 0)
(-0.0230875 -0.227894 0)
(-0.0329581 0.146512 0)
(0.0294696 0.109425 0)
(0.0602617 -0.015489 0)
(0.0541588 -0.0731173 0)
(0.0287549 -0.0757662 0)
(0.00298561 -0.0666502 0)
(-0.0139869 -0.0629027 0)
(-0.0234895 -0.0610993 0)
(-0.0291855 -0.058416 0)
(-0.0323069 -0.0549724 0)
(-0.0332412 -0.0521425 0)
(-0.0334553 -0.0514972 0)
(-0.034853 -0.0528045 0)
(-0.0380518 -0.0564349 0)
(-0.0426382 -0.0633694 0)
(-0.0480806 -0.0743579 0)
(-0.0546139 -0.0882211 0)
(-0.0629789 -0.102337 0)
(-0.0727123 -0.124468 0)
(-0.0770865 -0.167087 0)
(-0.0772974 -0.205997 0)
(-0.0786362 -0.222692 0)
(-0.0888725 -0.214306 0)
(-0.0153393 0.178753 0)
(0.012837 0.0777659 0)
(0.0225174 -0.0166633 0)
(0.0213526 -0.051448 0)
(0.0118635 -0.0563974 0)
(0.00162643 -0.0570006 0)
(-0.00664502 -0.0562651 0)
(-0.0137407 -0.0536247 0)
(-0.019929 -0.0501352 0)
(-0.0251189 -0.0467098 0)
(-0.0295267 -0.0440183 0)
(-0.0336481 -0.0426371 0)
(-0.0380142 -0.042902 0)
(-0.0429966 -0.0453237 0)
(-0.048877 -0.0507373 0)
(-0.0559576 -0.0592478 0)
(-0.0650751 -0.0688831 0)
(-0.0763885 -0.0791329 0)
(-0.0887877 -0.10482 0)
(-0.09928 -0.154813 0)
(-0.11283 -0.18902 0)
(-0.128217 -0.193563 0)
(-0.151489 -0.175502 0)
(0.000548246 0.169621 0)
(0.0109738 0.0473063 0)
(0.0167236 -0.0303604 0)
(0.0140738 -0.045779 0)
(0.00799246 -0.0422211 0)
(0.00122304 -0.0395551 0)
(-0.00560327 -0.0390113 0)
(-0.0119991 -0.0385726 0)
(-0.017777 -0.0375472 0)
(-0.0229717 -0.0360763 0)
(-0.0277737 -0.0344885 0)
(-0.0324011 -0.0331781 0)
(-0.0370769 -0.0326399 0)
(-0.0420791 -0.0335332 0)
(-0.0478334 -0.0364846 0)
(-0.0548389 -0.0414187 0)
(-0.063698 -0.0471176 0)
(-0.0736782 -0.0545491 0)
(-0.0852451 -0.0762261 0)
(-0.102294 -0.117618 0)
(-0.124937 -0.147614 0)
(-0.147926 -0.148321 0)
(-0.173533 -0.131033 0)
(0.00378017 0.154781 0)
(0.00950774 0.0363941 0)
(0.011142 -0.0252897 0)
(0.00696212 -0.0320567 0)
(0.00147312 -0.0283968 0)
(-0.00350908 -0.0275876 0)
(-0.0082409 -0.0280826 0)
(-0.0129354 -0.0282134 0)
(-0.0175266 -0.0277134 0)
(-0.0219529 -0.0267276 0)
(-0.026206 -0.0254806 0)
(-0.0303141 -0.0242837 0)
(-0.0343419 -0.0234974 0)
(-0.0384471 -0.0234735 0)
(-0.0429422 -0.0245106 0)
(-0.0482483 -0.0267533 0)
(-0.0546608 -0.030136 0)
(-0.0615563 -0.0353094 0)
(-0.0699849 -0.0474316 0)
(-0.0859922 -0.0712712 0)
(-0.107802 -0.0984881 0)
(-0.131892 -0.104022 0)
(-0.153582 -0.0948811 0)
(0.00288462 0.145108 0)
(0.00652348 0.0267569 0)
(0.00683879 -0.0215909 0)
(0.0027127 -0.023416 0)
(-0.0017269 -0.0198007 0)
(-0.00575294 -0.0190988 0)
(-0.0097196 -0.0194391 0)
(-0.0137092 -0.0195631 0)
(-0.0176315 -0.0192697 0)
(-0.0214167 -0.0186097 0)
(-0.0250338 -0.0177113 0)
(-0.0284778 -0.0168183 0)
(-0.0317772 -0.0161859 0)
(-0.0349923 -0.0159863 0)
(-0.0382439 -0.0163178 0)
(-0.0417514 -0.0173587 0)
(-0.0457102 -0.0194097 0)
(-0.0502099 -0.0229258 0)
(-0.0559493 -0.0286899 0)
(-0.0651018 -0.0384241 0)
(-0.0802372 -0.0538343 0)
(-0.0990258 -0.0637346 0)
(-0.116246 -0.0654098 0)
(0.00217601 0.138367 0)
(0.00392188 0.0225241 0)
(0.00316052 -0.015508 0)
(-0.000687299 -0.0148868 0)
(-0.00445623 -0.0119135 0)
(-0.00789378 -0.0115657 0)
(-0.0113025 -0.0119565 0)
(-0.0147233 -0.0121749 0)
(-0.0180965 -0.0120987 0)
(-0.021364 -0.0117526 0)
(-0.024496 -0.0112084 0)
(-0.0274761 -0.0106486 0)
(-0.0303293 -0.0103087 0)
(-0.0330926 -0.0103413 0)
(-0.0357782 -0.010771 0)
(-0.0384463 -0.0116034 0)
(-0.0412344 -0.0129486 0)
(-0.044435 -0.0150771 0)
(-0.0484532 -0.0180331 0)
(-0.0537904 -0.0219232 0)
(-0.061557 -0.0276901 0)
(-0.072242 -0.0338213 0)
(-0.0849474 -0.0386787 0)
(0.00134841 0.134622 0)
(0.00161889 0.0208908 0)
(0.000329361 -0.00958352 0)
(-0.00317232 -0.00778192 0)
(-0.00642467 -0.00530491 0)
(-0.00947159 -0.00512167 0)
(-0.0125097 -0.00550377 0)
(-0.0155548 -0.00576204 0)
(-0.0185687 -0.00582441 0)
(-0.0215124 -0.00570237 0)
(-0.0243559 -0.00542276 0)
(-0.027096 -0.00509595 0)
(-0.0297664 -0.00493234 0)
(-0.0324145 -0.0051169 0)
(-0.0350638 -0.00570379 0)
(-0.0377153 -0.00660218 0)
(-0.040407 -0.00769124 0)
(-0.0432896 -0.00895352 0)
(-0.0465987 -0.0104622 0)
(-0.0505543 -0.0122274 0)
(-0.055396 -0.0142384 0)
(-0.06154 -0.0164806 0)
(-0.0692915 -0.0191418 0)
(0.000415859 0.133718 0)
(-0.000188605 0.0215087 0)
(-0.00169331 -0.00386115 0)
(-0.00494499 -0.00152473 0)
(-0.0077998 0.000616727 0)
(-0.0105645 0.000714451 0)
(-0.0133388 0.000343617 0)
(-0.0161243 6.42017e-05 0)
(-0.0188977 -8.0036e-05 0)
(-0.0216362 -9.93295e-05 0)
(-0.0243177 7.79397e-06 0)
(-0.0269364 0.000195668 0)
(-0.0295239 0.000328953 0)
(-0.0321461 0.000224045 0)
(-0.0348664 -0.000239372 0)
(-0.0377077 -0.00102782 0)
(-0.040658 -0.00197025 0)
(-0.0437175 -0.0028742 0)
(-0.0469536 -0.00365195 0)
(-0.0505064 -0.00433187 0)
(-0.0544787 -0.00492653 0)
(-0.0590036 -0.00548157 0)
(-0.0641755 -0.00630265 0)
(-0.000281817 0.135031 0)
(-0.00156027 0.0235225 0)
(-0.00317577 0.00140016 0)
(-0.00603806 0.00403141 0)
(-0.00864184 0.00599934 0)
(-0.0112 0.00607329 0)
(-0.0137795 0.00573113 0)
(-0.0163755 0.00546119 0)
(-0.0189774 0.00529403 0)
(-0.0215739 0.00521537 0)
(-0.0241511 0.00523506 0)
(-0.0266997 0.00535282 0)
(-0.0292346 0.0055122 0)
(-0.031809 0.00558745 0)
(-0.0345009 0.00543511 0)
(-0.0373719 0.00498992 0)
(-0.0404319 0.00433232 0)
(-0.0436434 0.00366313 0)
(-0.0469669 0.00318868 0)
(-0.0504192 0.00299731 0)
(-0.0540491 0.00304485 0)
(-0.0579367 0.00322903 0)
(-0.0620422 0.00330832 0)
(-0.000792801 0.137951 0)
(-0.00245794 0.0262685 0)
(-0.00411765 0.00623062 0)
(-0.00666282 0.00907337 0)
(-0.00907454 0.0109814 0)
(-0.0114685 0.0110737 0)
(-0.0138908 0.0107773 0)
(-0.0163402 0.010543 0)
(-0.0188097 0.0103963 0)
(-0.0212946 0.0103195 0)
(-0.0237881 0.0103191 0)
(-0.0262809 0.0104113 0)
(-0.0287721 0.0105919 0)
(-0.0312862 0.0108063 0)
(-0.0338803 0.0109477 0)
(-0.0366261 0.0109069 0)
(-0.0395703 0.0106553 0)
(-0.042705 0.010295 0)
(-0.0459745 0.0100211 0)
(-0.0493237 0.0100072 0)
(-0.052732 0.0103024 0)
(-0.0562475 0.0108274 0)
(-0.0598487 0.0113689 0)
(-0.00115484 0.141975 0)
(-0.00300288 0.0293414 0)
(-0.00463882 0.0106542 0)
(-0.00694593 0.0137218 0)
(-0.00920501 0.0156412 0)
(-0.0114661 0.0157807 0)
(-0.0137623 0.0155466 0)
(-0.0160924 0.0153692 0)
(-0.0184517 0.0152724 0)
(-0.0208387 0.0152375 0)
(-0.0232507 0.0152661 0)
(-0.0256816 0.0153727 0)
(-0.0281245 0.0155723 0)
(-0.030582 0.0158589 0)
(-0.03308 0.0161825 0)
(-0.0356699 0.0164517 0)
(-0.0384084 0.0165835 0)
(-0.0413213 0.0165751 0)
(-0.0443832 0.0165373 0)
(-0.0475344 0.0166433 0)
(-0.0507178 0.017022 0)
(-0.0539263 0.0176712 0)
(-0.0571504 0.0184438 0)
(-0.00139043 0.146632 0)
(-0.00325215 0.0325229 0)
(-0.00483489 0.0147638 0)
(-0.00700828 0.0180779 0)
(-0.00914513 0.0200458 0)
(-0.0112926 0.0202457 0)
(-0.0134812 0.0200835 0)
(-0.0157095 0.019977 0)
(-0.0179707 0.0199468 0)
(-0.0202653 0.0199745 0)
(-0.022592 0.0200592 0)
(-0.0249476 0.0202103 0)
(-0.027326 0.0204429 0)
(-0.0297212 0.0207706 0)
(-0.0321382 0.0211861 0)
(-0.0346006 0.0216353 0)
(-0.0371505 0.0220398 0)
(-0.0398265 0.0223355 0)
(-0.0426326 0.0225411 0)
(-0.0455306 0.0227717 0)
(-0.0484787 0.0231746 0)
(-0.0514165 0.0238372 0)
(-0.0543203 0.0246798 0)
(-0.00148417 0.151555 0)
(-0.00330896 0.0357005 0)
(-0.0048575 0.0186465 0)
(-0.00692092 0.0222162 0)
(-0.00896552 0.0242419 0)
(-0.0110214 0.0245055 0)
(-0.0131162 0.0244197 0)
(-0.0152504 0.0243898 0)
(-0.0174203 0.0244322 0)
(-0.0196248 0.0245289 0)
(-0.0218624 0.0246788 0)
(-0.0241311 0.0248875 0)
(-0.0264266 0.0251651 0)
(-0.0287415 0.0255268 0)
(-0.0310814 0.0259843 0)
(-0.0334433 0.0265297 0)
(-0.0358417 0.0271015 0)
(-0.0383201 0.0276195 0)
(-0.040899 0.028038 0)
(-0.0435631 0.028399 0)
(-0.0462503 0.0288242 0)
(-0.0489129 0.029437 0)
(-0.0515663 0.0302354 0)
(-0.0014738 0.156479 0)
(-0.00323849 0.0387985 0)
(-0.00477476 0.0223932 0)
(-0.00675558 0.0262005 0)
(-0.00872546 0.028267 0)
(-0.0107002 0.0285867 0)
(-0.0127104 0.0285761 0)
(-0.0147579 0.0286213 0)
(-0.0168398 0.0287353 0)
(-0.0189548 0.0289001 0)
(-0.0211017 0.0291145 0)
(-0.0232791 0.0293831 0)
(-0.0254846 0.0297121 0)
(-0.0277133 0.0301127 0)
(-0.029948 0.0306009 0)
(-0.032194 0.0311896 0)
(-0.034468 0.0318476 0)
(-0.0367809 0.0325066 0)
(-0.0391564 0.0330893 0)
(-0.0415963 0.0335743 0)
(-0.044078 0.0340326 0)
(-0.0465324 0.0345717 0)
(-0.0489736 0.0352575 0)
(-0.00140272 0.161232 0)
(-0.00308861 0.0418076 0)
(-0.00463695 0.0260582 0)
(-0.006565 0.0300648 0)
(-0.00846746 0.0321412 0)
(-0.010366 0.0325043 0)
(-0.0122961 0.0325622 0)
(-0.0142603 0.0326774 0)
(-0.0162557 0.0328576 0)
(-0.0182808 0.0330852 0)
(-0.0203345 0.033359 0)
(-0.022415 0.0336833 0)
(-0.0245198 0.0340627 0)
(-0.0266447 0.0345042 0)
(-0.0287828 0.0350211 0)
(-0.0309281 0.0356234 0)
(-0.0330793 0.0363123 0)
(-0.0352439 0.0370419 0)
(-0.037441 0.0377311 0)
(-0.0396811 0.0383145 0)
(-0.0419653 0.0388052 0)
(-0.0442252 0.0392913 0)
(-0.0464987 0.0398496 0)
(-0.00130195 0.165711 0)
(-0.00290938 0.0447689 0)
(-0.00448119 0.0296873 0)
(-0.00637324 0.033825 0)
(-0.00821141 0.0358715 0)
(-0.0100361 0.0362648 0)
(-0.0118891 0.0363841 0)
(-0.0137731 0.0365619 0)
(-0.0156845 0.0368006 0)
(-0.0176216 0.0370829 0)
(-0.0195832 0.037408 0)
(-0.0215674 0.0377798 0)
(-0.023572 0.0382013 0)
(-0.0255934 0.0386761 0)
(-0.0276266 0.0392115 0)
(-0.0296648 0.0398208 0)
(-0.0317012 0.0405122 0)
(-0.0337344 0.0412637 0)
(-0.0357761 0.0420088 0)
(-0.0378383 0.0426647 0)
(-0.0399408 0.0431976 0)
(-0.0420219 0.0436533 0)
(-0.0441481 0.0440964 0)
(-0.00115937 0.169861 0)
(-0.00271701 0.0477363 0)
(-0.00432986 0.0333047 0)
(-0.00617409 0.0374792 0)
(-0.00794287 0.0394599 0)
(-0.00969655 0.039875 0)
(-0.0114768 0.0400497 0)
(-0.0132849 0.0402824 0)
(-0.0151167 0.0405709 0)
(-0.0169703 0.0408991 0)
(-0.0188441 0.0412666 0)
(-0.0207366 0.0416768 0)
(-0.0226451 0.042132 0)
(-0.0245666 0.0426332 0)
(-0.0264967 0.0431834 0)
(-0.0284295 0.0437916 0)
(-0.0303573 0.0444689 0)
(-0.032274 0.0452104 0)
(-0.0341841 0.0459688 0)
(-0.0360948 0.0466668 0)
(-0.0380392 0.0472421 0)
(-0.0399631 0.0476971 0)
(-0.0419615 0.0480677 0)
(-0.00102007 0.173692 0)
(-0.00254677 0.0507136 0)
(-0.0041406 0.036863 0)
(-0.00591429 0.0409995 0)
(-0.00760686 0.0429035 0)
(-0.00929213 0.0433412 0)
(-0.0110044 0.0435678 0)
(-0.0127416 0.0438487 0)
(-0.0144994 0.0441792 0)
(-0.0162756 0.0445452 0)
(-0.0180686 0.044947 0)
(-0.0198769 0.0453876 0)
(-0.0216979 0.0458681 0)
(-0.0235284 0.0463881 0)
(-0.0253647 0.0469479 0)
(-0.0272014 0.0475515 0)
(-0.0290298 0.0482077 0)
(-0.0308485 0.0489192 0)
(-0.0326551 0.0496619 0)
(-0.034445 0.0503739 0)
(-0.0362599 0.050984 0)
(-0.0380485 0.0514609 0)
(-0.0399355 0.0518057 0)
(-0.000936779 0.177225 0)
(-0.00239909 0.0536027 0)
(-0.00383605 0.0402465 0)
(-0.0054912 0.0443487 0)
(-0.00711356 0.0462059 0)
(-0.00873881 0.0466739 0)
(-0.0103888 0.0469486 0)
(-0.0120595 0.0472718 0)
(-0.0137481 0.0476381 0)
(-0.0154525 0.0480359 0)
(-0.0171713 0.0484659 0)
(-0.018903 0.0489307 0)
(-0.0206455 0.0494304 0)
(-0.0223956 0.0499639 0)
(-0.0241503 0.0505294 0)
(-0.025906 0.0511279 0)
(-0.0276577 0.0517636 0)
(-0.0293983 0.0524408 0)
(-0.0311245 0.0531527 0)
(-0.0328309 0.0538567 0)
(-0.0345561 0.0544886 0)
(-0.0362476 0.0549974 0)
(-0.0380562 0.0553547 0)
(-0.000931115 0.180506 0)
(-0.00218311 0.0561522 0)
(-0.00331727 0.0432793 0)
(-0.00484769 0.0475011 0)
(-0.00640709 0.0493833 0)
(-0.00797945 0.0498862 0)
(-0.00957054 0.0501997 0)
(-0.0111761 0.0505583 0)
(-0.0127969 0.0509556 0)
(-0.0144315 0.051381 0)
(-0.016079 0.0518356 0)
(-0.0177384 0.0523214 0)
(-0.0194079 0.052838 0)
(-0.0210854 0.0533834 0)
(-0.0227686 0.0539553 0)
(-0.0244556 0.0545523 0)
(-0.0261433 0.0551757 0)
(-0.0278261 0.0558289 0)
(-0.0295008 0.05651 0)
(-0.031158 0.0571962 0)
(-0.0328337 0.0578395 0)
(-0.0344699 0.0583842 0)
(-0.0362344 0.0587859 0)
(-0.00100489 0.183581 0)
(-0.00186035 0.0580086 0)
(-0.0025702 0.0457941 0)
(-0.00398635 0.0504654 0)
(-0.00550381 0.0524591 0)
(-0.00703258 0.0529876 0)
(-0.00856589 0.0533226 0)
(-0.0101043 0.053707 0)
(-0.0116552 0.0541302 0)
(-0.0132179 0.0545799 0)
(-0.0147919 0.0550573 0)
(-0.0163773 0.0555637 0)
(-0.0179732 0.0560982 0)
(-0.0195787 0.0566587 0)
(-0.0211932 0.0572428 0)
(-0.022816 0.0578482 0)
(-0.0244466 0.0584737 0)
(-0.0260817 0.0591198 0)
(-0.02772 0.0597859 0)
(-0.0293507 0.0604616 0)
(-0.0310071 0.0611166 0)
(-0.0326246 0.0617022 0)
(-0.0343801 0.0621731 0)
(-0.00113352 0.186421 0)
(-0.00141452 0.0588596 0)
(-0.00167123 0.0477409 0)
(-0.00303277 0.0532884 0)
(-0.0045274 0.0554639 0)
(-0.0059993 0.0559847 0)
(-0.00747387 0.0563165 0)
(-0.00894201 0.0567136 0)
(-0.0104192 0.0571558 0)
(-0.0119055 0.0576257 0)
(-0.0134012 0.058125 0)
(-0.0149079 0.0586517 0)
(-0.0164251 0.0592065 0)
(-0.0179536 0.0597875 0)
(-0.0194947 0.0603926 0)
(-0.0210499 0.0610192 0)
(-0.0226202 0.0616645 0)
(-0.0242053 0.0623263 0)
(-0.0258062 0.0630031 0)
(-0.0274137 0.0636902 0)
(-0.0290598 0.0643714 0)
(-0.0306751 0.0650106 0)
(-0.032435 0.065576 0)
(-0.00124711 0.188928 0)
(-0.000879657 0.0586175 0)
(-0.000802036 0.0492247 0)
(-0.00213293 0.0560325 0)
(-0.00361678 0.0583976 0)
(-0.00501864 0.0588641 0)
(-0.0064263 0.0591719 0)
(-0.00781976 0.0595717 0)
(-0.00921819 0.0600259 0)
(-0.0106215 0.0605114 0)
(-0.012035 0.0610269 0)
(-0.013461 0.0615736 0)
(-0.014894 0.0621505 0)
(-0.0163387 0.0627562 0)
(-0.0177988 0.0633918 0)
(-0.0192782 0.0640518 0)
(-0.020779 0.0647322 0)
(-0.0223025 0.0654315 0)
(-0.0238527 0.0661462 0)
(-0.0254232 0.0668736 0)
(-0.0270468 0.0676062 0)
(-0.0286513 0.0683184 0)
(-0.030394 0.0690069 0)
(-0.00121207 0.190892 0)
(-0.000252408 0.0574481 0)
(-0.000119948 0.0505074 0)
(-0.00140137 0.0587422 0)
(-0.00287122 0.0612167 0)
(-0.00416814 0.0615873 0)
(-0.00549833 0.061866 0)
(-0.00681365 0.0622664 0)
(-0.00812934 0.062728 0)
(-0.00945347 0.0632249 0)
(-0.0107834 0.0637537 0)
(-0.0121215 0.0643192 0)
(-0.0134691 0.0649194 0)
(-0.0148222 0.065553 0)
(-0.0161919 0.0662191 0)
(-0.017591 0.0669165 0)
(-0.019013 0.0676432 0)
(-0.0204588 0.0683961 0)
(-0.0219384 0.0691721 0)
(-0.0234488 0.0699699 0)
(-0.0250275 0.0707871 0)
(-0.0265893 0.0716106 0)
(-0.0282573 0.0724495 0)
(-0.000889886 0.191992 0)
(0.000572802 0.0558103 0)
(0.000385838 0.0519032 0)
(-0.00084433 0.0614228 0)
(-0.00227558 0.0638637 0)
(-0.00344822 0.0641281 0)
(-0.00468544 0.064393 0)
(-0.00592046 0.0647999 0)
(-0.00715165 0.0652677 0)
(-0.00839209 0.0657731 0)
(-0.0096373 0.0663156 0)
(-0.0108884 0.0668972 0)
(-0.0121473 0.067518 0)
(-0.0134155 0.0681778 0)
(-0.0146974 0.0688735 0)
(-0.0159982 0.0696085 0)
(-0.0173219 0.0703833 0)
(-0.0186723 0.0711947 0)
(-0.0200559 0.0720412 0)
(-0.0214727 0.0729242 0)
(-0.0229564 0.0738439 0)
(-0.0244427 0.0747982 0)
(-0.0260684 0.0758024 0)
(-0.000167775 0.191691 0)
(0.00164899 0.0543096 0)
(0.000790657 0.0536783 0)
(-0.000351613 0.0640631 0)
(-0.00172522 0.0663049 0)
(-0.00278057 0.0664929 0)
(-0.00392505 0.0667716 0)
(-0.00508315 0.0671936 0)
(-0.00623296 0.0676685 0)
(-0.00739088 0.0681809 0)
(-0.00855278 0.0687326 0)
(-0.00971817 0.0693258 0)
(-0.0108887 0.0699616 0)
(-0.0120656 0.0706408 0)
(-0.0132518 0.0713642 0)
(-0.0144513 0.0721332 0)
(-0.0156688 0.0729491 0)
(-0.0169091 0.0738123 0)
(-0.0181779 0.0747239 0)
(-0.0194777 0.0756875 0)
(-0.0208372 0.0767055 0)
(-0.0222039 0.0777802 0)
(-0.0237192 0.0789435 0)
(0.00101033 0.189236 0)
(0.0030275 0.0534429 0)
(0.00124985 0.0559943 0)
(0.000208859 0.0666039 0)
(-0.00111347 0.0684983 0)
(-0.00209509 0.0686504 0)
(-0.00316608 0.0689614 0)
(-0.00425737 0.0693973 0)
(-0.00533494 0.0698771 0)
(-0.00641604 0.0703906 0)
(-0.00749781 0.0709447 0)
(-0.0085789 0.0715421 0)
(-0.00966049 0.0721847 0)
(-0.0107433 0.0728743 0)
(-0.0118293 0.0736129 0)
(-0.0129216 0.0744033 0)
(-0.0140248 0.0752481 0)
(-0.0151433 0.0761501 0)
(-0.016282 0.0771127 0)
(-0.0174441 0.0781418 0)
(-0.0186512 0.0792428 0)
(-0.0198616 0.0804226 0)
(-0.0212057 0.0817167 0)
(0.00253779 0.183791 0)
(0.0045682 0.0535721 0)
(0.00179805 0.0589838 0)
(0.000861941 0.0690453 0)
(-0.000432967 0.0704849 0)
(-0.00138805 0.0706312 0)
(-0.00240898 0.0709696 0)
(-0.00344473 0.0714051 0)
(-0.00446195 0.0718737 0)
(-0.00547765 0.0723779 0)
(-0.00648343 0.0729236 0)
(-0.00748257 0.0735139 0)
(-0.00847571 0.0741517 0)
(-0.00946329 0.0748392 0)
(-0.0104465 0.0755797 0)
(-0.0114278 0.0763768 0)
(-0.0124108 0.0772349 0)
(-0.0133995 0.0781585 0)
(-0.0143969 0.0791525 0)
(-0.0154058 0.0802243 0)
(-0.0164385 0.0813816 0)
(-0.0174643 0.0826358 0)
(-0.018594 0.0840179 0)
(0.00406376 0.175201 0)
(0.00596914 0.0550422 0)
(0.00232856 0.0628856 0)
(0.00153334 0.0716633 0)
(0.000246049 0.0726206 0)
(-0.000710822 0.0727724 0)
(-0.00169725 0.0731097 0)
(-0.0026947 0.0735194 0)
(-0.00366072 0.0739583 0)
(-0.00461063 0.0744376 0)
(-0.00554652 0.0749609 0)
(-0.00646758 0.0755313 0)
(-0.00737474 0.0761516 0)
(-0.00826863 0.0768244 0)
(-0.00915019 0.0775534 0)
(-0.0100214 0.0783431 0)
(-0.0108848 0.0791989 0)
(-0.0117428 0.0801254 0)
(-0.0125962 0.081128 0)
(-0.0134463 0.0822164 0)
(-0.0142973 0.0833966 0)
(-0.0151284 0.0846825 0)
(-0.0160184 0.0861014 0)
(0.00532629 0.163969 0)
(0.00707129 0.0578166 0)
(0.00270888 0.0673923 0)
(0.00211018 0.0743577 0)
(0.000814147 0.0748882 0)