/*--------------------------------*- C++ -*----------------------------------*\
| =========                 |                                                 |
| \\      /  F ield         | OpenFOAM: The Open Source CFD Toolbox           |
|  \\    /   O peration     | Version:  2206                                  |
|   \\  /    A nd           | Website:  www.openfoam.com                      |
|    \\/     M anipulation  |                                                 |
\*---------------------------------------------------------------------------*/
FoamFile
{
    version     2.0;
    format      ascii;
    arch        "LSB;label=32;scalar=64";
    class       surfaceScalarField;
    location    "0.85";
    object      alphaPhi0.water;
}
// * * * * * * * * * * * * * * * * * * * * * * * * * * * * * * * * * * * * * //

dimensions      [0 3 -1 0 0 0 0];

oriented        oriented;

internalField   nonuniform List<scalar> 
4432
(
-4.44252e-06
4.44252e-06
-1.03179e-05
5.8754e-06
-1.71166e-05
6.7987e-06
-2.35134e-05
6.39677e-06
-2.6858e-05
3.34461e-06
-2.65234e-05
-3.3463e-07
-2.4918e-05
-1.60536e-06
-2.38181e-05
-1.09994e-06
-2.3177e-05
-6.41057e-07
-2.27934e-05
-3.83595e-07
-2.26475e-05
-1.4594e-07
-2.2454e-05
-1.93437e-07
-2.16144e-05
-8.39553e-07
-1.99988e-05
-1.48953e-06
-1.97114e-05
2.56358e-07
-2.40143e-05
3.99221e-06
-3.00545e-05
5.45619e-06
-3.03561e-05
4.06039e-07
-2.4431e-05
-5.65286e-06
-1.64036e-05
-7.87772e-06
-8.79227e-06
-7.61823e-06
-2.4023e-06
-6.43456e-06
-2.40228e-06
-9.11138e-06
1.35539e-05
-1.76757e-05
1.44398e-05
-2.45925e-05
1.37154e-05
-2.85859e-05
1.03902e-05
-2.9088e-05
3.8467e-06
-2.74688e-05
-1.95374e-06
-2.54871e-05
-3.58712e-06
-2.42028e-05
-2.3842e-06
-2.37035e-05
-1.14036e-06
-2.34879e-05
-5.99279e-07
-2.33842e-05
-2.49589e-07
-2.35795e-05
1.92054e-09
-2.45817e-05
1.6359e-07
-2.54396e-05
7.47051e-07
-2.83161e-05
3.0978e-06
-2.98856e-05
5.53657e-06
-2.74937e-05
2.71958e-06
-2.12048e-05
-6.04192e-06
-1.44185e-05
-1.25278e-05
-8.5355e-06
-1.38509e-05
-3.27583e-06
-1.33567e-05
2.33587e-07
-9.94395e-06
-2.16882e-06
-9.92155e-06
2.34754e-05
-1.82632e-05
2.27814e-05
-2.46824e-05
2.01346e-05
-2.88287e-05
1.45364e-05
-3.00791e-05
5.09716e-06
-2.86837e-05
-3.34911e-06
-2.64627e-05
-5.80818e-06
-2.48587e-05
-3.98815e-06
-2.38317e-05
-2.16741e-06
-2.28914e-05
-1.53958e-06
-2.18386e-05
-1.30235e-06
-2.09726e-05
-8.64074e-07
-2.08929e-05
8.40493e-08
-2.17558e-05
1.79321e-06
-2.15661e-05
4.09931e-06
-1.99607e-05
3.89754e-06
-1.52578e-05
-2.00834e-06
-1.0199e-05
-1.14418e-05
-6.58558e-06
-1.69641e-05
-3.12906e-06
-1.78793e-05
9.61267e-07
-1.75147e-05
3.25395e-06
-1.22369e-05
1.08495e-06
-9.18731e-06
3.26628e-05
-1.69739e-05
3.0568e-05
-2.34126e-05
2.65733e-05
-2.80147e-05
1.91386e-05
-2.97338e-05
6.81624e-06
-2.88538e-05
-4.22908e-06
-2.72414e-05
-7.42054e-06
-2.59276e-05
-5.30196e-06
-2.48406e-05
-3.25442e-06
-2.37035e-05
-2.67668e-06
-2.22734e-05
-2.73248e-06
-2.05834e-05
-2.55404e-06
-1.88334e-05
-1.66593e-06
-1.70837e-05
4.60529e-08
-1.45504e-05
1.66443e-06
-1.08766e-05
4.33892e-07
-7.31179e-06
-5.70052e-06
-5.40697e-06
-1.34506e-05
-4.48084e-06
-1.78902e-05
-2.33112e-06
-2.00291e-05
1.346e-06
-2.11918e-05
3.83098e-06
-1.47219e-05
4.91593e-06
-7.99493e-06
4.06577e-05
-1.50535e-05
3.76265e-05
-2.1011e-05
3.25309e-05
-2.52374e-05
2.3365e-05
-2.71305e-05
8.7093e-06
-2.73227e-05
-4.03689e-06
-2.7234e-05
-7.50921e-06
-2.69329e-05
-5.60309e-06
-2.61079e-05
-4.07947e-06
-2.48886e-05
-3.89598e-06
-2.33295e-05
-4.29156e-06
-2.14154e-05
-4.46811e-06
-1.91161e-05
-3.96529e-06
-1.62482e-05
-2.82182e-06
-1.26001e-05
-1.98365e-06
-8.70107e-06
-3.46513e-06
-6.18951e-06
-8.21209e-06
-5.75683e-06
-1.38833e-05
-5.77718e-06
-1.78698e-05
-4.22908e-06
-2.15772e-05
-1.15402e-06
-2.42669e-05
2.12304e-06
-1.7999e-05
7.03907e-06
-6.53465e-06
4.71923e-05
-1.24765e-05
4.35684e-05
-1.73058e-05
3.73602e-05
-2.06555e-05
2.67147e-05
-2.27592e-05
1.0813e-05
-2.44536e-05
-2.34252e-06
-2.65806e-05
-5.38228e-06
-2.78075e-05
-4.37614e-06
-2.74501e-05
-4.43689e-06
-2.61002e-05
-5.24584e-06
-2.426e-05
-6.13178e-06
-2.21358e-05
-6.59235e-06
-1.97585e-05
-6.34253e-06
-1.70117e-05
-5.56865e-06
-1.37804e-05
-5.21501e-06
-1.05194e-05
-6.72607e-06
-8.29207e-06
-1.04394e-05
-7.44284e-06
-1.47325e-05
-7.00481e-06
-1.83078e-05
-6.29124e-06
-2.22907e-05
-4.84202e-06
-2.57161e-05
-1.59212e-06
-2.12488e-05
5.44679e-06
-4.86547e-06
5.20578e-05
-9.62383e-06
4.83267e-05
-1.32311e-05
4.09674e-05
-1.54082e-05
2.88918e-05
-1.74509e-05
1.28561e-05
-2.10139e-05
1.22116e-06
-2.595e-05
-4.47153e-07
-2.87953e-05
-1.53074e-06
-2.88976e-05
-4.33458e-06
-2.73617e-05
-6.78176e-06
-2.50926e-05
-8.40089e-06
-2.25706e-05
-9.11432e-06
-1.99739e-05
-8.93925e-06
-1.72951e-05
-8.24745e-06
-1.44318e-05
-8.07827e-06
-1.15154e-05
-9.64253e-06
-9.09077e-06
-1.2864e-05
-7.57954e-06
-1.62438e-05
-6.96106e-06
-1.89263e-05
-7.33452e-06
-2.19173e-05
-7.96248e-06
-2.50882e-05
-6.58339e-06
-2.26279e-05
-1.13665e-06
-3.11043e-06
5.51682e-05
-6.20706e-06
5.14234e-05
-7.56469e-06
4.23251e-05
-7.36436e-06
2.86914e-05
-9.43222e-06
1.4924e-05
-1.69476e-05
8.74898e-06
-2.5369e-05
7.94213e-06
-2.97091e-05
2.80936e-06
-3.02181e-05
-3.82562e-06
-2.83756e-05
-8.62426e-06
-2.54023e-05
-1.13742e-05
-2.22343e-05
-1.22823e-05
-1.92553e-05
-1.19183e-05
-1.64865e-05
-1.10163e-05
-1.37207e-05
-1.0844e-05
-1.08182e-05
-1.25451e-05
-8.17107e-06
-1.55111e-05
-6.47957e-06
-1.79352e-05
-6.05074e-06
-1.93551e-05
-6.74167e-06
-2.12263e-05
-8.01043e-06
-2.38194e-05
-7.62462e-06
-2.30136e-05
-8.76136e-06
9.60081e-06
-9.98852e-06
5.49876e-07
7.67726e-06
-7.90838e-06
8.62864e-06
6.39686e-06
-1.40782e-05
1.95912e-05
-1.28161e-05
2.80558e-05
-8.58283e-06
2.68795e-05
1.38394e-06
1.83873e-05
9.01565e-06
1.17797e-05
1.66843e-05
-8.30977e-06
2.01054e-05
-1.66157e-05
8.32167e-06
-1.05033e-05
-6.0989e-06
-6.07452e-06
-4.41115e-06
-2.05064e-05
1.44534e-05
-4.26377e-05
2.21679e-05
-5.20489e-05
1.314e-05
-4.66122e-05
1.98094e-06
-1.90176e-05
-1.88908e-05
-3.63664e-05
-6.32329e-07
-9.12786e-06
-1.3769e-05
2.08057e-05
4.69832e-07
-3.81252e-06
1.72652e-05
-2.92126e-05
3.06513e-05
-2.47795e-05
3.69312e-05
-1.37221e-05
3.43894e-05
3.45473e-06
3.10241e-05
1.30036e-05
3.89924e-05
2.58736e-05
2.35712e-05
3.55645e-05
4.15757e-07
3.14907e-05
-2.31999e-05
1.36415e-05
-3.37638e-05
6.17426e-06
-3.47615e-05
1.77564e-05
-3.09385e-05
1.83418e-05
-2.84471e-05
1.06279e-05
-2.31444e-05
-3.58674e-06
-2.85524e-05
-2.75988e-05
-6.45311e-05
-8.27362e-06
-7.79733e-07
-6.80751e-06
1.98326e-05
1.07683e-05
-2.27872e-05
2.1943e-05
-4.19717e-05
4.13841e-05
-4.2964e-05
4.21379e-05
-1.55735e-05
3.67441e-05
7.46837e-06
3.56408e-05
2.11594e-05
4.25721e-05
2.83949e-05
4.01961e-05
3.59718e-05
2.46872e-05
4.70702e-05
-4.80625e-06
3.7244e-05
-2.12255e-05
2.72697e-05
-1.59923e-05
1.73941e-05
-1.80119e-05
2.01912e-05
-1.73919e-05
9.84535e-06
-1.408e-05
-7.08371e-06
-1.68381e-05
-2.4177e-05
-8.09814e-05
-1.1058e-05
1.03464e-05
2.02013e-06
6.86287e-06
2.09199e-05
-4.33161e-05
3.72438e-05
-5.29696e-05
4.02431e-05
-4.07578e-05
3.41996e-05
-1.03967e-05
3.222e-05
7.55431e-06
3.16779e-05
1.99525e-05
3.29579e-05
2.60358e-05
3.45931e-05
3.15677e-05
3.00332e-05
3.31258e-05
1.04817e-05
5.11169e-05
-6.53352e-06
5.18533e-05
-5.58208e-06
3.52925e-05
-5.52097e-06
1.99675e-05
-4.59291e-06
8.75472e-06
-3.94582e-06
-7.89339e-06
-2.45048e-06
-3.45313e-05
-7.53524e-05
-9.74045e-06
2.01464e-05
4.72706e-06
-5.11634e-06
1.98112e-05
-6.97059e-05
2.6211e-05
-5.68945e-05
1.69941e-05
-1.81278e-05
2.01453e-05
4.31968e-08
2.05494e-05
9.06627e-06
1.82234e-05
1.71385e-05
1.69379e-05
2.20269e-05
1.92262e-05
2.27925e-05
2.20262e-05
2.00772e-05
2.79031e-05
4.70078e-05
1.72002e-05
6.54083e-05
7.40405e-06
5.49427e-05
5.51181e-06
2.17244e-05
7.72825e-06
6.37569e-06
1.20915e-05
-1.23919e-05
1.79257e-05
-5.02117e-05
-6.93281e-05
-5.57378e-06
2.56822e-05
5.08376e-06
-1.61409e-05
1.21275e-05
-7.46016e-05
1.67745e-05
-5.92975e-05
4.8892e-06
-6.73419e-06
5.81168e-06
7.88984e-07
5.98279e-06
9.66559e-06
1.53651e-06
1.14185e-05
1.25756e-06
4.59261e-06
2.27467e-06
6.35372e-06
8.07539e-06
9.75161e-06
2.39785e-05
2.26028e-05
3.26911e-05
5.9582e-05
3.31654e-05
5.69601e-05
2.78889e-05
3.75696e-05
3.53503e-05
9.39508e-06
3.97432e-05
-2.46568e-05
3.08349e-05
-4.98421e-05
-4.3998e-05
-4.36312e-06
3.04699e-05
2.48525e-06
-2.31076e-05
1.15384e-06
-7.08967e-05
3.8265e-06
-4.04926e-05
1.39839e-06
-3.24361e-06
1.76625e-06
5.7956e-07
1.04733e-06
1.91188e-06
-1.74807e-06
1.73145e-06
-3.61681e-06
1.09686e-06
-5.9368e-06
3.41931e-07
-3.30009e-06
-1.32975e-07
8.01053e-06
3.85393e-07
2.85901e-05
2.72191e-05
4.20252e-05
4.57104e-05
5.14422e-05
2.98603e-05
5.77774e-05
3.99832e-06
5.07314e-05
-1.83223e-05
3.1063e-05
-3.45906e-05
-1.76895e-05
-7.11912e-06
3.79136e-05
-7.823e-06
-2.26787e-05
-4.4356e-06
-7.18975e-05
-3.39125e-07
-3.15634e-05
3.08151e-07
-3.73245e-06
4.89656e-07
6.19546e-07
-5.38969e-07
2.77857e-06
-1.46447e-06
2.49568e-06
-2.47827e-06
1.84294e-06
-3.44672e-06
8.98158e-07
-5.92476e-06
-1.61651e-06
-6.54073e-07
-9.68365e-06
5.61637e-06
6.62073e-06
2.88049e-05
1.00967e-05
3.71783e-05
1.284e-05
3.56021e-05
1.13831e-07
2.91433e-05
-1.82143e-05
2.12244e-05
-2.15072e-05
2.87116e-06
3.37417e-06
5.17941e-05
1.42182e-06
5.33757e-05
-2.73e-06
4.64769e-05
-1.46346e-05
4.0596e-05
-3.4153e-05
3.44425e-05
-5.36053e-05
2.82013e-05
-6.50594e-05
1.93962e-05
-6.96219e-05
7.37197e-06
-6.70512e-05
-6.396e-06
-5.97202e-05
-1.59538e-05
-5.07211e-05
-2.0372e-05
-4.25743e-05
-2.04283e-05
-3.57656e-05
-1.87276e-05
-3.01024e-05
-1.66806e-05
-2.50376e-05
-1.59094e-05
-1.96104e-05
-1.7971e-05
-1.42059e-05
-2.09119e-05
-1.10841e-05
-2.1054e-05
-1.12667e-05
-1.91709e-05
-1.20458e-05
-2.04459e-05
-9.8975e-06
-2.59667e-05
3.9773e-07
-3.33079e-05
-3.3124e-05
2.47619e-05
-8.04046e-06
4.56677e-05
-1.97435e-05
5.07047e-05
-3.52031e-05
4.74974e-05
-5.23302e-05
4.17096e-05
-6.95291e-05
3.66588e-05
-7.97205e-05
3.02432e-05
-8.28653e-05
1.85425e-05
-8.19798e-05
5.59929e-06
-7.88216e-05
-7.46437e-06
-6.95855e-05
-2.27538e-05
-5.98041e-05
-2.5434e-05
-5.18702e-05
-2.02713e-05
-4.56149e-05
-1.70792e-05
-4.11516e-05
-1.49204e-05
-3.80207e-05
-1.35296e-05
-3.32584e-05
-1.62333e-05
-2.44426e-05
-2.0813e-05
-1.7171e-05
-2.10618e-05
-1.66551e-05
-1.45543e-05
-1.74316e-05
-1.67437e-05
-1.02456e-05
-3.14797e-05
7.27137e-06
-5.00004e-05
-5.20765e-05
2.62515e-05
-2.91753e-05
1.98728e-05
-4.28113e-05
7.76123e-06
-5.5023e-05
8.41727e-06
-6.17328e-05
5.45623e-06
-7.11317e-05
5.64574e-06
-8.50926e-05
1.23133e-05
-0.000103978
1.30145e-05
-0.000124959
4.6087e-06
-0.000135339
-1.35355e-05
-0.00010919
-2.67719e-05
-6.4372e-05
-1.34825e-05
-4.40973e-05
-7.59638e-06
-3.97723e-05
-4.55966e-06
-4.03166e-05
-4.2246e-06
-4.14226e-05
-3.39484e-06
-4.26973e-05
-9.89519e-06
-3.9511e-05
-3.02161e-05
-2.63292e-05
-3.50242e-05
-1.86319e-05
-1.09063e-05
-2.19817e-05
-8.78707e-06
-3.42156e-05
-2.32389e-05
-3.72887e-05
-5.31951e-05
-3.59138e-05
-5.34326e-05
-2.23204e-05
-3.22788e-06
-2.62778e-05
5.0295e-07
-3.1805e-05
-7.33995e-08
-3.32018e-05
-1.9355e-06
-8.23792e-05
-1.3576e-07
-0.00019258
5.85189e-06
-0.000239376
1.6324e-06
-0.000240497
-9.82674e-06
-0.000227186
-2.71229e-05
-8.91361e-05
-3.32308e-05
-3.07941e-05
-2.51858e-05
-1.61516e-05
-1.72919e-05
-1.32605e-05
-3.78824e-06
-1.24844e-05
-1.26236e-07
-1.15122e-05
2.80836e-08
-2.67034e-05
-1.99747e-05
-4.01561e-05
-5.55459e-05
-4.39681e-05
-4.88196e-05
-3.55919e-05
-3.3016e-05
-4.33654e-05
-1.4747e-05
-0.000105754
-2.68317e-05
-0.000136813
-2.27425e-05
1.06299e-05
-0.000183318
-3.93023e-06
-5.25553e-07
-3.96868e-06
3.81388e-07
-4.65984e-06
3.35874e-07
-4.33092e-06
1.11141e-07
-1.2208e-05
1.66616e-07
-3.91236e-05
1.82949e-07
-5.32282e-05
-9.07157e-09
-4.84988e-05
-6.09625e-08
-4.57602e-05
-4.57254e-07
-5.91705e-05
-2.43062e-06
-5.71446e-05
-2.08177e-06
-3.60453e-05
-1.32105e-05
-1.38776e-05
-7.17548e-06
-7.63488e-06
-1.22617e-06
-8.97459e-06
1.04587e-06
-9.0687e-05
-7.21248e-06
-0.00010576
-5.21124e-05
-9.34468e-05
-7.56622e-05
-5.73112e-05
-5.0954e-05
-8.33259e-05
-2.74108e-05
-0.000164297
-1.54324e-05
-0.000204087
1.52663e-05
3.79175e-05
-0.000229155
-8.06456e-07
9.97621e-08
-5.90756e-07
1.98531e-07
-3.99739e-07
9.78951e-08
-3.42099e-07
3.23668e-08
-1.86337e-07
5.40584e-09
-1.77321e-09
-1.13057e-11
-1.08333e-08
-5.39533e-12
-7.17843e-08
-9.47824e-12
-5.29017e-07
-2.90419e-11
-2.95953e-06
-1.58028e-10
-1.17139e-05
-1.14884e-09
-2.18642e-05
-7.87165e-09
-1.32267e-05
-3.07154e-09
-5.19003e-06
-1.25436e-07
-4.31173e-06
7.26817e-09
-1.11518e-05
-8.98207e-07
-7.40329e-05
-1.10634e-05
-0.000126116
-3.69579e-05
-0.000131226
-5.60289e-05
-0.000151195
-3.14009e-05
-0.000173944
5.56183e-07
-0.000136438
1.78248e-05
1.49498e-05
-5.84555e-05
-1.89615e-07
2.67996e-07
-1.00354e-07
1.08859e-07
-3.30555e-08
2.10679e-08
-5.46388e-09
3.01425e-09
-6.59635e-12
-7.75094e-13
-4.58189e-12
-9.38503e-12
-4.06058e-12
-4.96562e-12
-7.23716e-12
-2.65065e-12
-3.36659e-11
-2.68823e-12
-1.92626e-10
-7.17601e-12
-1.34819e-09
-4.92786e-11
-9.2243e-09
-3.67454e-10
-3.6063e-08
-1.86053e-09
-1.72863e-07
-3.34668e-09
-2.0843e-07
1.08255e-09
-1.04761e-06
-1.46466e-07
-1.06385e-05
-1.998e-06
-6.00371e-05
-6.94461e-06
-0.000130121
-3.98768e-05
-0.000140089
-3.1618e-05
-4.78157e-05
3.37951e-06
-2.57231e-05
5.07084e-06
7.81196e-06
-1.9324e-05
1.22429e-08
2.94676e-07
-1.9084e-08
1.49606e-07
-2.83993e-09
3.07439e-09
-3.82198e-11
2.36612e-10
-1.78502e-11
-5.15318e-13
-5.13825e-12
-6.40787e-13
-4.00806e-12
-1.03826e-12
-1.87882e-12
-6.75729e-13
-2.09812e-12
-1.13998e-12
-7.02349e-12
-1.81379e-12
-4.30148e-11
-2.22195e-11
-3.13307e-10
-1.66494e-10
-2.10968e-09
-5.62627e-10
-7.21942e-09
-5.97487e-10
-1.78035e-08
-1.45448e-10
-1.87996e-07
-3.44393e-08
-1.99342e-06
-4.80626e-07
-7.88468e-06
-2.36305e-06
-8.76963e-05
-1.18724e-05
-0.000120486
-3.58554e-05
-8.20108e-05
-1.86311e-06
-1.44249e-05
1.14344e-05
5.03843e-06
-1.27381e-05
8.40001e-08
2.7087e-07
-1.32808e-09
2.63808e-07
-2.09912e-10
4.36548e-09
-1.53772e-11
5.72625e-11
-1.45668e-12
-4.21056e-14
-1.77486e-13
-4.15267e-13
-1.40478e-13
-1.9464e-13
-2.86478e-13
-1.47426e-13
9.7286e-13
-8.19813e-14
-1.53997e-12
-2.05862e-13
-1.24281e-10
-1.43955e-12
2.69325e-11
-2.1355e-12
8.223e-10
8.76105e-12
-3.57946e-10
2.54315e-11
-3.31726e-09
1.59545e-10
-4.44706e-08
-1.82192e-09
-4.97291e-07
-5.63982e-08
-2.50797e-06
-4.89437e-07
-2.46666e-05
-2.05584e-06
-0.000108147
-1.34963e-05
-8.51995e-05
-8.67231e-06
-6.99902e-05
6.87607e-06
1.30395e-05
-6.43094e-05
8.41904e-08
2.38708e-07
1.2925e-08
5.14863e-07
2.54805e-10
2.78946e-08
-4.21794e-13
3.37418e-10
-1.40798e-13
4.39781e-14
-6.47536e-14
-1.7528e-13
-4.7384e-14
-4.21554e-14
-2.5575e-14
-5.21279e-14
-1.36495e-13
-2.74759e-14
-3.37122e-13
-9.18535e-14
-1.78888e-11
2.15633e-13
-7.50433e-11
-8.26326e-13
-4.78582e-11
-9.35887e-13
-8.10377e-11
6.28439e-12
-3.91609e-10
5.86683e-11
-4.42924e-09
2.4637e-10
-5.95703e-08
-3.25486e-09
-4.74252e-07
-1.05387e-07
-1.7647e-06
-8.67818e-07
-8.93558e-06
-7.49974e-06
-4.89777e-05
-1.27347e-05
-6.64314e-05
-5.35677e-06
5.32674e-08
-4.46196e-05
5.96476e-08
1.12762e-07
6.83915e-08
4.61789e-07
3.18392e-09
1.36675e-07
4.89216e-11
3.78962e-09
-2.16421e-12
7.56324e-11
-3.70605e-15
-2.28784e-12
-7.41081e-15
-3.37823e-14
-7.63886e-15
-1.08315e-13
-6.77964e-14
-2.37332e-14
-1.2016e-12
-1.07735e-14
-9.43108e-13
3.67789e-13
-1.65988e-12
-2.04146e-13
-3.40286e-12
1.61088e-13
-4.97379e-12
3.40501e-12
-4.2329e-11
4.53378e-11
-3.92216e-10
3.51473e-10
-4.63436e-09
7.55751e-10
-8.22192e-08
-2.87131e-08
-8.47231e-07
-3.72242e-07
-7.00911e-06
-5.66185e-06
-6.50205e-06
-1.35239e-05
-4.01258e-06
-7.55195e-06
-2.49183e-06
-1.96006e-06
5.88705e-08
4.02693e-08
1.18709e-07
3.36911e-07
3.1026e-08
2.34152e-07
9.02789e-10
2.44367e-08
-1.04208e-11
9.80174e-10
-3.70519e-12
-8.69628e-12
-1.22428e-13
-3.93364e-12
4.90317e-14
-3.16891e-13
3.08702e-15
-3.42038e-14
-3.8155e-13
6.13186e-15
-7.75749e-13
8.22837e-13
-2.26412e-13
5.68744e-13
-2.63359e-13
1.44873e-13
2.14833e-12
2.65001e-13
3.94671e-11
2.53342e-12
3.61529e-10
1.58269e-11
1.50173e-09
8.42404e-11
-2.29582e-08
-2.90223e-09
-3.22328e-07
-6.03672e-08
-3.33165e-06
-1.17448e-06
-6.18341e-06
-7.14379e-06
-4.8553e-06
-8.0208e-06
-4.97134e-06
-2.40309e-06
3.1769e-08
5.2944e-09
1.13761e-07
1.29415e-07
7.71949e-08
1.63344e-07
2.55242e-09
5.764e-08
1.64091e-10
2.87575e-09
-2.97972e-12
1.10621e-10
-5.11961e-13
-9.63124e-12
1.16844e-13
-1.05988e-12
4.12306e-14
4.34265e-15
4.92847e-14
2.03847e-14
-7.93922e-14
2.88458e-13
-6.17282e-14
6.17721e-13
-3.62897e-14
1.11226e-13
1.14735e-13
1.28741e-13
2.21287e-12
3.73879e-13
-5.08553e-11
6.3331e-12
2.21057e-11
-1.74782e-11
-1.81946e-09
-2.92206e-11
-5.63987e-08
-4.85436e-09
-1.12645e-06
-9.51558e-08
-5.20746e-06
-7.9801e-07
-7.34704e-06
-4.8472e-06
-6.46886e-06
-5.37459e-06
4.12849e-09
6.9143e-10
4.61811e-08
7.80815e-09
4.8452e-08
3.19764e-08
1.85256e-09
3.05209e-08
3.68936e-10
5.10791e-09
4.2166e-11
2.85949e-10
3.3291e-12
1.37244e-11
1.51587e-13
1.0486e-12
-8.37344e-15
1.56065e-13
4.03238e-14
5.90895e-14
6.35465e-14
3.66328e-14
2.39334e-14
1.31268e-13
2.21935e-16
1.29828e-13
5.39681e-15
1.19233e-13
2.11443e-13
1.78331e-13
1.33644e-12
4.34867e-13
-3.08477e-12
-5.72502e-13
3.69284e-11
1.52349e-11
-4.09878e-09
-4.7192e-10
-7.32139e-08
-2.51172e-08
-7.07004e-07
-1.54949e-07
-3.79849e-06
-6.33347e-07
-3.86838e-06
-4.88682e-06
5.6856e-10
4.70362e-11
6.43323e-09
1.41535e-09
1.20049e-08
3.39324e-09
9.85076e-09
3.06294e-10
-1.43953e-11
3.50007e-09
4.91259e-11
2.67369e-10
4.35367e-12
3.6905e-11
2.10411e-13
3.35227e-12
-3.99996e-15
2.81523e-13
3.26246e-14
5.02364e-14
2.04664e-14
4.74434e-14
3.14419e-14
1.05537e-13
2.06954e-14
1.4118e-13
1.45577e-14
1.09765e-13
5.36299e-14
1.27379e-13
4.12911e-13
6.68637e-14
1.53842e-12
8.0778e-13
5.55661e-12
2.22745e-11
-1.364e-10
3.14021e-10
1.61233e-09
-1.75998e-08
-2.01861e-08
-1.5372e-07
-1.86369e-07
-5.06359e-07
-2.89936e-06
-1.98956e-06
2.50042e-11
5.52799e-12
1.19319e-09
1.71643e-10
2.454e-09
7.38835e-10
1.4039e-09
1.68676e-10
8.55822e-10
-1.04246e-10
-1.40382e-11
1.5922e-10
-4.57514e-13
1.04455e-11
-2.35759e-15
1.6978e-12
3.27928e-14
1.48656e-13
2.89734e-14
3.24251e-14
2.8166e-14
5.02484e-14
5.23327e-14
1.3938e-13
3.94481e-14
1.64289e-13
2.04807e-14
1.10611e-13
2.27436e-14
1.17432e-13
8.27216e-14
1.99753e-13
8.9246e-13
5.48143e-13
7.75489e-12
1.67494e-11
-2.91232e-10
6.18698e-10
3.58307e-08
-7.24326e-09
-2.136e-07
-2.02398e-07
-1.29025e-06
-1.95159e-06
-4.75583e-06
-9.99006e-07
-6.34307e-12
2.58837e-12
1.20821e-10
2.30611e-11
4.02215e-10
1.28764e-10
2.78239e-10
3.77434e-11
7.20651e-11
-5.56843e-12
2.34792e-11
-4.92044e-12
-9.49349e-13
3.00508e-12
7.38272e-15
2.52948e-13
1.69106e-14
4.76272e-14
2.04703e-14
2.5957e-14
4.8491e-14
7.15243e-14
7.63368e-14
1.89678e-13
5.86722e-14
1.98923e-13
2.924e-14
1.18063e-13
2.75056e-14
1.20941e-13
9.10941e-14
3.43516e-13
3.87635e-13
3.40344e-13
7.03501e-12
1.0391e-11
3.42785e-09
1.43168e-09
4.32004e-08
2.82333e-09
-6.37618e-07
-1.82109e-07
-2.38335e-06
-3.34693e-06
-4.4683e-06
-2.50069e-06
-1.2122e-12
6.64636e-13
1.08395e-11
3.59696e-12
5.23141e-11
2.02057e-11
3.62511e-11
6.20531e-12
1.14397e-11
2.57524e-13
1.12303e-12
-2.02313e-13
2.70181e-14
2.84423e-14
8.70492e-15
7.13567e-14
1.29353e-14
1.44201e-14
1.96713e-14
2.21377e-14
7.84226e-14
1.08965e-13
9.06233e-14
2.13053e-13
7.50037e-14
2.19069e-13
3.31004e-14
1.21337e-13
3.12851e-14
1.07314e-13
6.86864e-14
2.98451e-13
1.63822e-13
3.04785e-13
9.31619e-12
1.37637e-12
8.62852e-10
1.21629e-09
3.39271e-08
2.81042e-09
-6.4594e-07
-6.70599e-08
-2.35944e-06
-3.84094e-06
-4.04671e-06
-2.61773e-06
-9.22332e-14
1.49422e-13
1.42472e-12
6.0951e-13
6.8121e-12
2.91394e-12
4.22019e-12
9.20553e-13
1.38781e-12
1.5855e-13
2.31048e-13
6.01067e-14
4.02277e-14
3.45814e-14
1.17264e-14
2.57454e-14
6.29162e-15
5.29061e-15
1.84252e-14
1.80189e-14
8.64523e-14
1.1473e-13
9.54792e-14
2.22469e-13
8.64618e-14
2.32613e-13
2.97278e-14
1.17278e-13
2.54585e-14
7.18411e-14
4.30255e-14
1.03118e-13
7.02349e-14
1.09202e-13
1.28837e-12
1.74596e-13
2.304e-11
4.34468e-10
3.85876e-09
1.0566e-09
-1.46993e-07
-1.2668e-08
-2.15483e-06
-2.30369e-06
-3.56494e-06
-2.45236e-06
5.83625e-15
5.57618e-14
2.67155e-13
1.37422e-13
8.79697e-13
3.85026e-13
5.30965e-13
1.56187e-13
1.73388e-13
5.87784e-14
4.21327e-14
3.36645e-14
1.31417e-14
2.13482e-14
3.47533e-15
6.53278e-15
1.85091e-15
1.74479e-15
1.53985e-14
1.34556e-14
7.58235e-14
8.56854e-14
9.92362e-14
2.1357e-13
8.57112e-14
2.19279e-13
2.32635e-14
1.01609e-13
1.62941e-14
3.77676e-14
1.52956e-14
2.55976e-14
1.71811e-14
1.38929e-14
1.71596e-13
2.18306e-14
8.10897e-11
1.17897e-10
3.35577e-09
1.2665e-09
-1.10404e-08
5.76257e-09
-1.79985e-06
-1.17084e-06
-3.41154e-06
-1.66879e-06
2.70786e-15
2.32453e-14
4.48365e-14
3.85427e-14
1.16295e-13
6.59942e-14
6.96988e-14
1.9044e-14
2.58893e-14
2.79064e-14
1.03439e-14
1.6467e-14
3.25797e-15
6.05868e-15
8.12691e-16
1.47799e-15
6.29717e-16
7.70641e-16
9.22405e-15
7.56428e-15
4.61289e-14
3.92954e-14
8.05688e-14
1.47699e-13
7.24678e-14
1.50993e-13
1.76925e-14
7.43464e-14
6.17047e-15
1.85902e-14
3.74588e-15
8.62947e-15
2.76396e-15
3.29573e-15
2.167e-14
2.92012e-15
9.77098e-11
2.02155e-11
2.68758e-09
2.0039e-09
-1.04575e-08
1.99147e-08
-1.32764e-06
-5.48794e-07
-2.77119e-06
-1.5335e-06
7.71931e-16
7.59434e-15
8.84077e-15
2.36664e-14
1.65361e-14
2.07122e-14
1.06229e-14
1.55632e-14
6.05982e-15
1.00521e-14
2.16888e-15
4.14204e-15
5.81231e-16
1.07412e-15
2.7717e-16
3.99846e-16
2.68916e-16
4.07803e-16
3.70394e-15
2.65897e-15
1.78994e-14
1.18063e-14
4.58039e-14
5.97001e-14
4.35491e-14
6.7214e-14
1.29356e-14
4.08077e-14
2.72787e-15
9.50847e-15
1.33692e-15
3.40593e-15
8.85542e-16
1.76929e-15
3.21601e-15
4.58721e-16
1.73849e-11
2.84493e-12
1.07937e-09
6.48654e-10
-4.92283e-10
2.14234e-08
-6.57452e-07
-2.69169e-07
-1.98518e-06
-1.05415e-06
2.03303e-16
1.80935e-15
2.10961e-15
8.597e-15
3.03414e-15
6.4832e-15
2.16899e-15
4.65068e-15
1.03481e-15
2.02545e-15
3.44255e-16
6.79104e-16
1.20456e-16
1.83265e-16
1.057e-16
1.31765e-16
1.42905e-16
2.04972e-16
1.04593e-15
6.80056e-16
4.80432e-15
2.6691e-15
1.71439e-14
1.45332e-14
1.77061e-14
2.00549e-14
7.77678e-15
1.54829e-14
1.3557e-15
4.6993e-15
6.56564e-16
1.27205e-15
5.38597e-16
1.1078e-15
7.5959e-16
1.46822e-16
2.46194e-12
3.83645e-13
5.44484e-10
1.06494e-10
4.89894e-09
1.70643e-08
-4.08026e-07
2.9753e-08
-9.64978e-07
-9.3046e-08
4.37646e-17
3.54528e-16
4.379e-16
1.63342e-15
5.63381e-16
1.22992e-15
3.46165e-16
6.95583e-16
1.59446e-16
3.11093e-16
5.43965e-17
1.09682e-16
2.92053e-17
3.10429e-17
3.39776e-17
4.21804e-17
7.40601e-17
8.61314e-17
2.52955e-16
1.71728e-16
1.05076e-15
5.41e-16
4.49613e-15
2.76436e-15
5.22717e-15
4.65146e-15
3.41929e-15
4.26846e-15
7.08e-16
1.88689e-15
3.81099e-16
4.47419e-16
4.13955e-16
5.83793e-16
4.09128e-16
7.44931e-17
3.39225e-13
4.4995e-14
9.17115e-11
1.5097e-11
1.4474e-08
2.68674e-09
-1.19834e-07
9.4235e-08
-5.39318e-08
-2.82959e-07
8.34777e-18
6.38988e-17
8.11648e-17
2.75201e-16
8.14732e-17
1.8555e-16
5.11056e-17
1.04268e-16
2.4114e-17
4.79875e-17
8.48997e-18
1.71886e-17
5.61059e-18
5.25042e-18
1.10269e-17
1.05248e-17
2.77702e-17
2.7361e-17
6.12098e-17
4.48377e-17
2.13723e-16
1.09693e-16
9.69109e-16
4.98876e-16
1.27172e-15
9.5639e-16
1.10797e-15
9.56892e-16
3.37827e-16
5.74896e-16
1.64505e-16
1.51575e-16
2.19055e-16
2.07684e-16
1.94563e-16
4.0903e-17
4.12756e-14
3.92179e-15
1.37078e-11
1.51696e-12
2.42642e-09
2.73987e-10
1.08489e-07
8.02297e-09
5.73939e-09
1.82526e-07
1.48428e-18
1.09663e-17
1.33669e-17
4.38595e-17
1.15399e-17
2.78755e-17
7.34852e-18
1.54706e-17
3.55624e-18
7.18171e-18
1.29628e-18
2.586e-18
9.08588e-19
8.63053e-19
2.70441e-18
2.01161e-18
7.74968e-18
6.23285e-18
1.4869e-17
1.07397e-17
4.26826e-17
2.21379e-17
1.90068e-16
8.75403e-17
2.75844e-16
1.81379e-16
2.85416e-16
1.88764e-16
1.27295e-16
1.37585e-16
6.02154e-17
4.47466e-17
7.7582e-17
4.74714e-17
3.39028e-17
2.81637e-17
3.78765e-15
3.10806e-16
1.40269e-12
1.17614e-13
2.55705e-10
1.96875e-11
7.72094e-09
5.56225e-10
3.54249e-10
1.34525e-08
2.48805e-19
1.78924e-18
2.0658e-18
6.72297e-18
1.59978e-18
4.05725e-18
1.02966e-18
2.219e-18
5.08335e-19
1.03336e-18
1.91971e-19
3.73166e-19
1.42883e-19
1.35145e-19
5.17241e-19
3.3059e-19
1.70523e-18
1.12505e-18
3.3631e-18
2.20981e-18
8.31377e-18
4.23119e-18
3.45931e-17
1.45381e-17
5.56823e-17
3.14706e-17
6.09144e-17
3.36877e-17
3.66124e-17
2.72432e-17
1.67043e-17
1.0926e-17
1.72217e-17
7.90206e-18
1.16187e-17
7.78046e-18
3.0438e-16
1.53399e-17
1.09817e-13
8.07431e-15
1.8755e-11
1.04334e-12
5.48696e-10
2.62607e-11
9.77323e-12
9.1435e-10
3.94286e-20
2.77669e-19
3.03837e-19
9.85266e-19
2.15699e-19
5.67554e-19
1.39928e-19
3.06026e-19
7.02554e-20
1.42908e-19
2.74876e-20
5.16992e-20
2.16603e-20
2.02512e-20
8.7393e-20
5.18989e-20
3.17224e-19
1.83088e-19
6.73029e-19
3.95592e-19
1.53297e-18
7.41433e-19
5.81673e-18
2.25367e-18
1.02151e-17
4.96162e-18
1.13265e-17
5.4579e-18
8.26555e-18
4.62737e-18
3.38564e-18
2.25356e-18
3.25374e-18
1.11869e-18
3.89659e-18
1.49955e-18
1.77461e-17
7.03883e-19
7.68187e-15
4.07393e-16
1.01238e-12
3.88043e-14
2.64096e-11
8.75315e-13
1.47334e-14
3.71025e-11
5.93047e-21
4.11574e-20
4.26819e-20
1.38055e-19
2.81864e-20
7.6314e-20
1.83988e-20
4.06227e-20
9.37259e-21
1.90189e-20
3.79713e-21
6.88257e-21
3.1556e-21
2.90847e-21
1.39474e-20
7.94585e-21
5.31343e-20
2.84065e-20
1.19431e-19
6.39623e-20
2.61433e-19
1.18711e-19
9.02777e-19
3.26363e-19
1.67492e-18
7.16015e-19
1.87808e-18
8.00639e-19
1.53034e-18
6.91667e-19
6.54393e-19
3.81546e-19
5.46159e-19
1.54933e-19
7.53767e-19
1.89906e-19
7.16066e-19
1.69095e-19
3.99432e-16
8.10522e-18
3.8163e-14
1.07917e-15
9.02977e-13
2.76386e-14
-9.92315e-15
9.591e-13
8.50249e-22
5.84879e-21
5.74462e-21
1.857e-20
3.56392e-21
9.88551e-21
2.33741e-21
5.19879e-21
1.20519e-21
2.43861e-21
5.05109e-22
8.81319e-22
4.40736e-22
4.00417e-22
2.1198e-21
1.16446e-21
8.2727e-21
4.21056e-21
1.91862e-20
9.59635e-21
4.09627e-20
1.75567e-20
1.29775e-19
4.43881e-20
2.47239e-19
9.55238e-20
2.79138e-19
1.07038e-19
2.40554e-19
9.2562e-20
1.13091e-19
5.43561e-20
8.09088e-20
2.08848e-20
9.30994e-20
1.65054e-20
9.72828e-20
1.66873e-20
7.78277e-18
2.96501e-19
1.06071e-15
3.53473e-17
2.88201e-14
7.2259e-16
-1.62068e-16
2.18328e-14
1.16605e-22
7.98513e-22
7.42779e-22
2.40615e-21
4.35578e-22
1.23579e-21
2.866e-22
6.42188e-22
1.49215e-22
3.01574e-22
6.46148e-23
1.08674e-22
5.89081e-23
5.28779e-23
3.05005e-22
1.62111e-22
1.20757e-21
5.92204e-22
2.83837e-21
1.35271e-21
5.92119e-21
2.4267e-21
1.736e-20
5.70087e-21
3.31451e-20
1.18922e-20
3.74699e-20
1.31576e-20
3.29454e-20
1.12524e-20
1.67316e-20
6.73422e-21
8.84765e-21
2.62678e-21
8.98456e-21
1.40985e-21
1.01716e-20
1.2209e-21
2.79734e-19
1.06884e-20
3.52418e-17
1.11758e-18
8.19887e-16
1.4048e-17
1.1451e-17
7.014e-16
1.53274e-23
1.04565e-22
9.24394e-23
3.01013e-22
5.14092e-23
1.49105e-22
3.38839e-23
7.6581e-23
1.77771e-23
3.59923e-23
7.94384e-24
1.29188e-23
7.53022e-24
6.70944e-24
4.15148e-23
2.15284e-23
1.65652e-22
7.90653e-23
3.90659e-22
1.80222e-22
7.95072e-22
3.16135e-22
2.17109e-21
6.94904e-22
4.069e-21
1.39228e-21
4.57921e-21
1.4996e-21
4.00408e-21
1.25529e-21
2.11e-21
7.40624e-22
9.35907e-22
2.86272e-22
7.87725e-22
1.23829e-22
8.20222e-22
8.65333e-23
1.14899e-20
3.24436e-22
1.14696e-18
2.97324e-20
2.51214e-17
2.74215e-19
1.24496e-18
7.42686e-17
1.92607e-24
1.29644e-23
1.10854e-23
3.63973e-23
5.8373e-24
1.7287e-23
3.85626e-24
8.78173e-24
2.03643e-24
4.14005e-24
9.38583e-25
1.48147e-24
9.20963e-25
8.19688e-25
5.3629e-24
2.74337e-24
2.14243e-23
1.00726e-23
5.03457e-23
2.28099e-23
9.97856e-23
3.90546e-23
2.54999e-22
8.07909e-23
4.60255e-22
1.54148e-22
5.12988e-22
1.59123e-22
4.35609e-22
1.28249e-22
2.26667e-22
7.11063e-23
8.9861e-23
2.51573e-23
6.07686e-23
9.17507e-24
5.71847e-23
5.36653e-24
4.212e-22
1.02363e-23
3.29626e-20
4.40522e-22
7.58167e-19
4.91915e-21
7.99619e-20
7.54717e-18
2.27043e-25
1.43209e-24
1.28087e-24
4.24078e-24
6.31652e-25
1.89118e-24
4.19402e-25
9.50268e-25
2.24032e-25
4.54266e-25
1.06589e-25
1.63463e-25
1.07819e-25
9.64722e-26
6.60064e-25
3.37036e-25
2.62361e-24
1.23157e-24
6.10685e-24
2.75764e-24
1.17668e-23
4.59904e-24
2.82426e-23
8.99841e-24
4.79374e-23
1.6102e-23
5.27147e-23
1.55413e-23
4.16099e-23
1.12466e-23
1.92883e-23
5.01241e-24
6.23356e-24
1.46279e-24
3.53782e-24
4.25465e-25
3.51107e-24
2.21202e-25
1.57118e-23
4.26914e-25
9.04209e-22
1.18732e-23
1.73775e-20
1.20746e-22
2.50032e-21
3.71066e-19
2.27148e-26
1.16786e-25
1.41583e-25
4.67622e-25
6.27172e-26
1.79877e-25
4.24638e-26
8.98439e-26
2.34021e-26
4.53849e-26
1.15984e-26
1.70511e-26
1.20531e-26
1.08586e-26
7.76929e-26
4.00829e-26
3.05507e-25
1.45288e-25
7.00457e-25
3.20214e-25
1.30914e-24
5.18341e-25
2.95156e-24
9.59048e-25
4.5166e-24
1.5382e-24
4.81703e-24
1.26013e-24
2.83528e-24
6.60749e-25
8.67409e-25
2.94946e-24
2.70877e-25
8.93141e-25
1.25232e-25
2.84167e-25
1.14433e-25
1.37277e-25
5.12981e-25
2.16504e-25
3.09615e-23
7.84921e-25
4.15324e-22
3.40998e-24
5.54919e-23
1.06189e-20
1.52175e-27
8.53914e-26
1.45754e-26
4.50535e-26
4.9314e-27
1.31995e-26
3.61542e-27
6.6686e-27
2.24166e-27
3.51858e-27
1.19039e-27
1.5412e-27
1.26828e-27
1.13237e-27
8.78073e-27
4.6364e-27
3.39494e-26
1.66215e-26
7.62309e-26
3.58865e-26
1.37467e-25
5.58104e-26
2.85251e-25
9.46952e-26
3.94935e-25
1.13821e-25
2.67496e-25
6.84959e-26
2.88937e-25
4.22517e-25
-1.27607e-27
-1.60164e-27
-4.58153e-25
-4.87428e-25
-4.10697e-25
-3.63717e-25
-1.60225e-25
-1.14978e-25
5.22953e-26
3.98392e-27
1.4025e-24
2.91453e-26
1.25168e-23
1.3175e-25
1.40095e-24
2.55488e-22
-2.63813e-28
-8.85586e-27
1.24332e-27
4.07901e-27
3.13302e-28
1.03258e-26
2.25303e-28
5.17021e-27
1.46731e-28
2.63307e-27
1.05573e-28
1.24683e-28
1.2137e-28
9.75108e-29
9.59588e-28
5.26144e-28
3.60846e-27
1.85321e-27
7.85937e-27
3.88804e-27
1.33593e-26
5.53121e-27
2.18219e-26
6.97476e-27
2.17707e-26
6.38103e-27
2.64125e-26
4.78801e-26
-9.32058e-26
-1.46428e-25
-3.52826e-25
-4.76368e-25
-4.78209e-25
-5.4809e-25
-3.5951e-25
-3.43529e-25
-1.67165e-25
-1.29615e-25
-2.72643e-26
-1.64338e-26
7.04713e-26
1.61442e-26
4.60464e-25
6.12726e-27
3.1244e-26
5.68796e-24
-7.15743e-28
-2.51271e-26
1.34828e-28
2.56454e-27
-3.03588e-28
-3.81464e-27