/*--------------------------------*- C++ -*----------------------------------*\
| =========                 |                                                 |
| \\      /  F ield         | OpenFOAM: The Open Source CFD Toolbox           |
|  \\    /   O peration     | Version:  2206                                  |
|   \\  /    A nd           | Website:  www.openfoam.com                      |
|    \\/     M anipulation  |                                                 |
\*---------------------------------------------------------------------------*/
FoamFile
{
    version     2.0;
    format      ascii;
    arch        "LSB;label=32;scalar=64";
    class       volScalarField;
    location    "0.85";
    object      alpha.water;
}
// * * * * * * * * * * * * * * * * * * * * * * * * * * * * * * * * * * * * * //

dimensions      [0 0 0 0 0 0 0];

internalField   nonuniform List<scalar> 
2268
(
0.999999
0.999999
1
1
1
1
1
1
1
1
1
1
0.999998
0.998996
0.977631
0.958882
0.991548
0.994852
0.991515
0.985702
0.99102
0.998329
0.999801
0.999999
1
1
1
1
1
1
1
1
1
1
0.999999
0.999986
0.989536
0.946365
0.946265
0.948556
0.96455
0.963151
0.963078
0.965717
0.999999
0.999801
0.999999
1
1
1
1
1
1
1
1
1
1
1
0.999998
0.998778
0.970636
0.946325
0.946265
0.947502
0.967036
0.983648
1
0.999998
0.999822
0.999999
1
1
1
1
1
1
1
1
1
1
1
1
0.999978
0.998785
0.992511
0.991745
1
1
1
1
1
0.999892
1
1
1
1
1
1
1
1
1
1
1
1
1
1
1
1
1
1
1
1
1
0.999999
0.999996
1
1
1
1
1
1
1
1
1
1
1
1
1
1
1
1
1
1
1
1
1
0.999993
0.999985
1
1
1
1
0.999996
0.999953
0.999933
1
1
1
1
1
1
1
1
1
1
1
1
1
1
0.999988
0.999976
1
1
1
1
1
0.999624
0.998968
1
1
1
1
1
1
1
1
0.999999
0.999999
0.999999
0.999999
0.999999
0.999999
0.999988
0.999976
0.56073
0.566793
0.623699
0.622633
0.480044
0.484856
0.485581
0.486304
0.814706
0.892116
0.892116
0.892128
0.892012
0.891898
0.891528
0.793124
0.540311
0.481624
0.62711
0.582963
0.541538
0.608326
0.472827
0.471822
0.580559
0.54778
0.486861
0.671979
0.891572
0.892127
0.861889
0.891898
0.789173
0.395697
0.280549
0.277098
0.418943
0.705019
0.583709
0.54383
0.429274
0.428658
0.657163
0.808176
0.784368
0.686178
0.703742
0.888205
0.891446
0.715853
0.844713
0.389058
0.273627
0.272729
0.274124
0.282096
0.705019
0.583706
0.583485
0.428411
0.477964
0.784591
0.817313
0.825167
0.851395
0.86476
0.870549
0.817724
0.71746
0.79175
0.329827
0.272729
0.272729
0.272729
0.338064
0.669526
0.583708
0.491446
0.58059
0.584792
0.364862
0.491419
0.7487
0.843096
0.851546
0.839942
0.68966
0.817151
0.828416
0.740104
0.272766
0.272729
0.272766
0.6532
0.730125
0.57751
0.443264
0.588896
0.588896
0.116785
0.11487
0.618046
0.718588
0.537523
0.574306
0.555475
0.759267
0.828333
0.82845
0.628384
0.545026
0.565985
0.767376
0.779331
0.566331
0.442486
0.588896
0.435356
0.0460308
0.029954
0.278293
0.261068
0.0495586
0.106819
0.182437
0.285608
0.808185
0.824351
0.823156
0.816884
0.807057
0.801313
0.789359
0.56635
0.444284
0.587069
0.121448
0.029954
0.028491
0.018855
0.0187486
0.0185117
0.0208209
0.0767969
0.187374
0.200168
0.578667
0.762797
0.642615
0.63925
0.677981
0.732308
1
1
1
1
1
1
0.999998
1
0.999999
0.999994
0.999986
0.999981
0.99998
0.999982
0.999982
0.999976
0.999966
0.999968
0.999979
0.999986
0.999992
0.999983
0.999973
0.96858
0.98697
0.97606
0.961329
0.969885
0.993874
0.99582
0.993689
0.987779
0.974528
0.961011
0.944716
0.929979
0.921285
0.917931
0.916149
0.916195
0.93353
0.955323
0.977703
0.996141
0.993264
0.99989
0.625355
0.533719
0.538641
0.496299
0.480704
0.519922
0.582315
0.653445
0.694742
0.655271
0.447805
0.310524
0.28002
0.286954
0.296271
0.315241
0.384572
0.426439
0.404002
0.499808
0.731319
0.982873
0.999901
0.17591
0.0267625
0.052437
0.0668873
0.146499
0.426619
0.608951
0.654788
0.667158
0.373156
0.101749
0.062191
0.0577473
0.0522784
0.0533113
0.118546
0.305398
0.331381
0.294283
0.294283
0.518958
0.998066
0.999764
0.00769931
0.00197868
0.0013376
0.00155357
0.0151782
0.0741397
0.146043
0.165036
0.151966
0.170488
0.204325
0.205424
0.0603017
0.0234849
0.017588
0.291735
0.555083
0.588252
0.437599
0.391831
0.853241
0.996664
0.995142
0.00193458
0.0006642
0.000244378
7.57645e-05
1.02351e-05
-1.87239e-06
1.58449e-08
1.99067e-08
3.41516e-08
1.23123e-07
0.0139838
0.0778915
0.0916577
0.0587269
0.000567885
0.00244671
0.238341
0.590199
0.702149
0.718765
0.738305
0.64944
0.287589
0.000586404
0.000265787
4.68127e-05
6.06579e-06
-3.0064e-08
2.51358e-08
2.10579e-08
1.47022e-08
1.86179e-08
3.41561e-08
1.23118e-07
7.01736e-07
4.84909e-05
3.00401e-05
0.0001145
0.000567843
0.00244612
0.0442574
0.53298
0.702149
0.37856
0.074557
0.0663768
0.000208813
5.41415e-05
6.08541e-06
5.08178e-08
4.5171e-08
1.05575e-07
5.18364e-08
1.32331e-08
1.44732e-08
1.41364e-08
4.21025e-08
2.21651e-07
1.43487e-06
7.284e-06
3.73147e-05
0.0001871
0.000953214
0.00475008
0.156022
0.522935
0.462602
0.142037
0.0663864
0.000281457
6.7234e-05
2.16786e-06
1.76335e-08
1.73739e-08
1.00782e-08
1.78119e-09
4.11449e-09
1.0874e-08
3.93001e-09
3.72499e-07
4.46547e-06
4.56902e-06
2.45166e-06
1.37817e-05
7.17938e-05
0.000332327
0.00148135
0.0199531
0.282635
0.457827
0.458036
0.413217
0.000542645
0.000385899
2.36373e-05
4.55283e-09
4.45553e-09
1.62467e-09
1.28615e-09
1.11887e-09
7.02886e-10
7.87471e-10
1.2359e-07
7.93847e-07
1.24748e-06
5.29677e-07
2.53032e-06
1.59002e-05
7.13914e-05
0.000334499
0.00156961
0.0091108
0.172745
0.375786
0.404266
0.000394488
0.000752036
6.66143e-05
4.92152e-07
4.56371e-09
3.19695e-09
7.93039e-10
7.02886e-10
7.02886e-10
3.35755e-09
7.12349e-08
1.32244e-08
6.49123e-09
6.62823e-08
4.26798e-07
3.94175e-06
2.89241e-05
0.000126401
0.0011024
0.0324889
0.0581592
0.0379512
0.0355269
7.8986e-05
0.000738433
0.000471568
2.9895e-05
3.77549e-07
2.72757e-08
2.76336e-09
7.12144e-10
7.02886e-10
1.19009e-09
7.05804e-08
1.40302e-08
2.21207e-09
7.36448e-09
7.19267e-08
9.33076e-07
7.71668e-06
1.72725e-05
0.000169897
0.0203477
0.0494891
0.0576392
0.0363634
1.48094e-05
0.000551279
0.000553425
0.000152691
1.95003e-06
2.00712e-07
1.55483e-08
1.36753e-09
7.12144e-10
8.593e-10
3.96885e-08
1.46882e-08
1.87387e-09
1.79268e-09
6.89612e-09
6.60365e-07
4.0944e-06
1.4834e-06
1.18323e-05
0.000115837
0.0130738
0.0593986
0.061664
2.93511e-06
0.000122058
0.000300059
0.000215332
1.30475e-05
5.11133e-07
5.24697e-08
4.8896e-09
1.42508e-09
1.26129e-09
3.17573e-09
6.36484e-09
1.84805e-09
1.25902e-09
2.09783e-09
4.15686e-08
9.39001e-08
5.84814e-07
1.26372e-06
1.18356e-05
0.000115803
0.00544954
0.0537271
3.53696e-07
2.39396e-06
3.43155e-05
7.55978e-05
3.25146e-05
4.85029e-07
5.50431e-08
5.23677e-09
1.01168e-09
7.67614e-10
6.27652e-10
1.5901e-09
1.79832e-09
1.23173e-09
1.25902e-09
1.83234e-09
8.7244e-09
4.03343e-08
6.31965e-06
0.000127745
0.000181772
0.000369409
0.00245944
8.61304e-08
3.53108e-07
3.4919e-06
2.76055e-06
9.32189e-06
2.28445e-06
2.85967e-08
2.89892e-09
5.66194e-10
4.00653e-10
6.06616e-10
1.64537e-09
1.86045e-09
1.23173e-09
1.23138e-09
1.46256e-09
2.74658e-09
6.49647e-09
1.33944e-07
0.000308536
0.00137761
0.00994023
0.0157637
3.35511e-08
7.91137e-08
7.75351e-07
5.63765e-07
2.37169e-07
4.4911e-07
6.04375e-08
1.08928e-09
2.98372e-10
2.94092e-10
6.96182e-10
1.95375e-09
2.10198e-09
1.23425e-09
1.22966e-09
3.19312e-09
3.16626e-09
2.64314e-09
7.64045e-06
0.00024957
0.00167134
0.0242171
0.0266509
1.01085e-08
2.26991e-08
1.51166e-07
1.01517e-07
4.07074e-08
1.20087e-08
8.06005e-09
7.02831e-10
1.21489e-10
2.35746e-10
1.02303e-09
2.16417e-09
2.23429e-09
1.21698e-09
1.1203e-09
3.11384e-09
3.08601e-09
7.90203e-10
1.26448e-05
7.32175e-05
0.00161678
0.0252319
0.0266663
2.10002e-09
4.6348e-09
2.5915e-08
1.65272e-08
6.57213e-09
1.98754e-09
6.15867e-10
2.91909e-10
5.89002e-11
1.88365e-10
1.10529e-09
2.19521e-09
2.23429e-09
1.16165e-09
8.27519e-10
1.66392e-09
1.72504e-09
1.04866e-10
9.80255e-06
8.79081e-06
0.000292454
0.0162861
0.0266287
5.79965e-10
1.04944e-09
4.10628e-09
2.55619e-09
1.18751e-09
4.79769e-10
2.19152e-10
9.27946e-11
2.20809e-11
1.4318e-10
9.28939e-10
2.13308e-09
2.17467e-09
1.03085e-09
4.73503e-10
4.78871e-10
3.47264e-10
1.54494e-11
5.37338e-07
2.99753e-06
1.41479e-05
0.0113563
0.0263186
2.50538e-10
3.42083e-10
7.04128e-10
5.08028e-10
2.69536e-10
1.69109e-10
7.92361e-11
2.27165e-11
9.22475e-12
9.1256e-11
5.3969e-10
1.71423e-09
1.73815e-09
8.10915e-10
2.33086e-10
1.32969e-10
4.46882e-11
3.11323e-12
-5.02501e-10
1.28565e-05
1.399e-05
0.00787382
0.0253907
9.72346e-11
1.69169e-10
1.69274e-10
1.31953e-10
1.07369e-10
5.72192e-11
1.83534e-11
5.77097e-12
4.92549e-12
4.06633e-11
2.05487e-10
9.16295e-10
9.73978e-10
5.13594e-10
1.15422e-10
4.76332e-11
1.81832e-11
1.06428e-12
-7.95285e-11
2.74135e-06
2.76668e-06
0.00611892
0.0187529
2.79691e-11
8.73177e-11
7.04084e-11
5.35205e-11
3.15511e-11
1.20003e-11
3.21974e-12
1.93486e-12
2.60668e-12
1.23913e-11
5.44369e-11
2.93883e-10
3.6312e-10
2.37195e-10
5.96102e-11
1.75967e-11
1.13998e-11
6.50404e-13
1.1633e-12
9.63292e-10
3.36621e-07
0.00572425
0.0141686
6.18782e-12
2.60592e-11
1.99631e-11
1.27628e-11
5.73551e-12
2.01771e-12
5.54538e-13
6.86005e-13
1.22971e-12
3.24007e-12
1.1672e-11
6.34898e-11
9.70913e-11
7.86772e-11
2.74086e-11
6.22688e-12
6.71891e-12
4.50878e-13
-1.85838e-12
-1.02606e-10
4.30666e-08
0.00366039
0.01141
1.18881e-12
4.8766e-12
3.5418e-12
2.00401e-12
9.17155e-13
3.31521e-13
9.82555e-14
2.00914e-13
4.67094e-13
8.70444e-13
2.39827e-12
1.17679e-11
2.15707e-11
2.01826e-11
1.00107e-11
2.25829e-12
3.04269e-12
2.99244e-13
-8.02485e-13
-1.04024e-10
6.74602e-09
0.00016492
0.00413298
2.14713e-13
8.19083e-13
5.58269e-13
3.10736e-13
1.44582e-13
5.2638e-14
1.72867e-14
4.49261e-14
1.30679e-13
2.25899e-13
5.01051e-13
2.12815e-12
4.37848e-12
4.40339e-12
2.86531e-12
7.71155e-13
9.42806e-13
2.84344e-13
-8.59678e-14
7.89535e-13
8.32636e-10
1.59001e-07
3.39988e-06
3.70277e-14
1.31777e-13
8.60751e-14
4.71442e-14
2.20369e-14
8.03002e-15
2.91188e-15
8.06694e-15
2.73675e-14
5.17334e-14
1.0236e-13
3.74141e-13
8.23313e-13
8.65305e-13
6.66058e-13
2.26255e-13
2.03724e-13
1.39193e-13
2.81762e-14
2.83899e-13
8.30154e-11
1.70202e-08
1.58965e-07
6.08442e-15
2.04096e-14
1.27981e-14
6.89513e-15
3.2298e-15
1.17689e-15
4.67356e-16
1.31958e-15
4.80883e-15
1.02428e-14
1.94937e-14
6.23227e-14
1.41896e-13
1.55383e-13
1.30934e-13
5.70225e-14
3.35086e-14
3.92751e-14
8.16979e-15
3.0854e-14
6.85874e-12
1.36305e-09
5.71471e-09
9.54265e-16
3.02546e-15
1.82659e-15
9.69807e-16
4.55385e-16
1.65833e-16
7.17833e-17
2.111e-16
7.85391e-16
1.80008e-15
3.39844e-15
9.7475e-15
2.24079e-14
2.54069e-14
2.2405e-14
1.18284e-14
5.15368e-15
7.37273e-15
4.15396e-15
6.90845e-15
7.48438e-13
8.85523e-11
1.60246e-10
1.43355e-16
4.29955e-16
2.50659e-16
1.31381e-16
6.18394e-17
2.2482e-17
1.0562e-17
3.27948e-17
1.2314e-16
2.90271e-16
5.44926e-16
1.43393e-15
3.26753e-15
3.78326e-15
3.40585e-15
2.02694e-15
7.84487e-16
8.49273e-16
8.66862e-16
1.12745e-15
6.00513e-14
8.84225e-12
9.14992e-12
2.06813e-17
5.87937e-17
3.31467e-17
1.71662e-17
8.09555e-18
2.93473e-18
1.48904e-18
4.86155e-18
1.84448e-17
4.38209e-17
8.1322e-17
1.99256e-16
4.43928e-16
5.1622e-16
4.67167e-16
2.95419e-16
1.16959e-16
7.95836e-17
8.63255e-17
1.32207e-16
3.48789e-15
3.96984e-13
1.83675e-12
2.86503e-18
7.75626e-18
4.22955e-18
2.16441e-18
1.02234e-18
3.6918e-19
2.01373e-19
6.86394e-19
2.62587e-18
6.24692e-18
1.14076e-17
2.62641e-17
5.6626e-17
6.50371e-17
5.85247e-17
3.76776e-17
1.54381e-17
7.84303e-18
7.28481e-18
7.55261e-18
1.79103e-16
1.93467e-14
4.05867e-13
3.78203e-19
9.88319e-19
5.18875e-19
2.62751e-19
1.24423e-19
4.47706e-20
2.61739e-20
9.2787e-20
3.56069e-19
8.44815e-19
1.5141e-18
3.2968e-18
6.82153e-18
7.61009e-18
6.72827e-18
4.2349e-18
1.69945e-18
7.42608e-19
5.61972e-19
3.43706e-19
8.94885e-18
6.75386e-16
4.81772e-14
4.59848e-20
1.2151e-19
6.05542e-20
3.03161e-20
1.45145e-20
5.23063e-21
3.27472e-21
1.20695e-20
4.62256e-20
1.08873e-19
1.91069e-19
3.95569e-19
7.77668e-19
8.24026e-19
6.95164e-19
3.90868e-19
1.29079e-19
4.19052e-20
3.07031e-20
3.71931e-20
7.14475e-19
3.15001e-17
2.98172e-15
4.27104e-21
1.42203e-20
6.3605e-21
3.15247e-21
1.56974e-21
5.81873e-22
3.93073e-22
1.5166e-21
5.77432e-21
1.34354e-20
2.30156e-20
4.54838e-20
8.24546e-20
7.95955e-20
5.24766e-20
1.33851e-20
3.07838e-21
7.43529e-22
3.37016e-22
1.10294e-21
9.90578e-20
1.52778e-18
1.07337e-16
8.57664e-23
1.50946e-21
4.52349e-22
2.25115e-22
1.37304e-22
5.86872e-23
4.42814e-23
1.8471e-22
6.97286e-22
1.59509e-21
2.65104e-21
4.94561e-21
7.51049e-21
4.75771e-21
6.81319e-22
-3.07753e-23
-1.03471e-20
-8.7368e-21
-3.23184e-21
1.47393e-38
9.17455e-21
8.00774e-20
3.66405e-18
-1.06847e-22
1.06092e-22
8.67926e-24
4.16478e-24
2.66663e-24
3.76589e-24
4.33392e-24
2.19427e-23
8.17878e-23
1.82804e-22
2.88172e-22
4.66517e-22
3.01617e-22
5.37758e-23
-2.70725e-21
-9.58925e-21
-1.22322e-20
-8.70909e-21
-3.86147e-21
-6.05083e-22
3.65591e-22
4.09979e-21
1.06224e-19
-3.11797e-22
1.31848e-24
-4.86185e-23
-2.20576e-23
-6.05926e-25
4.14192e-26
2.37864e-25
2.57595e-24
9.35316e-24
2.01463e-23
2.65691e-23
1.3221e-23
3.3148e-24
-9.06942e-22
-3.87552e-21
-6.91312e-21
-7.01974e-21
-4.67189e-21
-2.15115e-21
-4.47468e-22
-9.98621e-25
2.31925e-22
2.76833e-21
-2.17985e-22
-9.2918e-24
-5.5959e-23
-2.69453e-23
-5.68236e-24
-5.40268e-25
0
3.03707e-25
1.03016e-24
1.97641e-24
5.78753e-25
-4.60602e-40
-1.53118e-22
-9.53444e-22
-2.39859e-21
-3.37393e-21
-3.02121e-21
-1.881e-21
-8.47888e-22
-2.02072e-22
-2.07838e-23
1.22929e-23
7.15985e-23
-1.0854e-22
-1.21928e-23
-3.0207e-23
-1.4732e-23
-3.59385e-24
-5.19958e-25
-1.32856e-26
2.82556e-26
1.02551e-25
8.05293e-26
0
-1.60594e-23
-1.45577e-22
-5.56994e-22
-1.10964e-21
-1.34675e-21
-1.08987e-21
-6.28641e-22
-2.67112e-22
-6.65219e-23
-8.44703e-24
0
1.79172e-24
-4.50864e-23
-6.88133e-24
-1.24795e-23
-6.10008e-24
-1.56201e-24
-2.54956e-25
-1.50445e-26
1.04382e-27
4.41936e-27
9.54679e-28
-1.11967e-24
-1.42658e-23
-8.37186e-23
-2.53546e-22
-4.34078e-22
-4.70225e-22
-3.46408e-22
-1.83361e-22
-7.16503e-23
-1.74471e-23
-2.26373e-24
-9.70426e-26
2.74835e-26
-1.66265e-23
-2.90917e-24
-4.4438e-24
-2.15719e-24
-5.56476e-25
-9.42241e-26
-7.01204e-27
0
7.13234e-29
-4.79926e-26
-9.76626e-25
-8.2814e-24
-3.87242e-23
-1.00232e-22
-1.5212e-22
-1.48425e-22
-9.87915e-23
-4.70116e-23
-1.63192e-23
-3.56625e-24
-3.94984e-25
-1.75293e-26
7.06128e-45
0.999973
0.999973
0.999972
0.902671
0.999973
0.999972
0.999971
0.686965
0.999959
0.999821
0.88687
0.213485
0.999307
0.814105
0.256235
0.0822995
0.587721
0.138753
0.0685144
0.0728
0.0844827
0.0661091
0.0672324
0.0685405
0.0661091
0.0661091
0.0661091
0.115617
0.0663768
0.06624
0.0788943
0.0929049
0.334036
0.22458
0.0649589
0.00905799
0.295089
0.0661369
0.0258454
0.0292938
0.0273961
0.0261557
0.0254041
0.0439561
0.0311404
0.0294452
0.0556769
0.0403124
0.061664
0.061664
0.0616266
0.00248393
0.061664
0.0616266
0.0357153
2.74167e-05
0.0247813
0.025444
1.36871e-05
1.53579e-05
0.00158239
1.36871e-05
1.2461e-05
1.31437e-05
0.0266526
0.0033667
9.76146e-06
2.16543e-05
0.0266287
0.0125937
7.6115e-06
3.97859e-05
0.0217769
6.1142e-06
6.54537e-06
4.75862e-05
0.00844614
5.97689e-06
6.02314e-06
1.30258e-05
0.00404791
5.88583e-06
5.80313e-06
5.54338e-06
0.00104287
5.80313e-06
5.54338e-06
5.38453e-06
6.26405e-06
5.88583e-06
9.31988e-06
1.12852e-05
0.000491945
6.30275e-06
1.61858e-05
7.76345e-06
0.00194118
0.000166514
3.47195e-07
3.31244e-08
1.01602e-05
3.58917e-05
1.32994e-05
5.19192e-09
7.03638e-06
5.69776e-08
5.24898e-09
5.29645e-10
5.30035e-07
3.18443e-07
7.88996e-10
1.55933e-11
2.75689e-08
1.6757e-10
9.87067e-12
2.97752e-12
1.14755e-09
6.21028e-10
8.17696e-11
7.4171e-12
7.38158e-11
6.99305e-11
3.84695e-11
9.04029e-12
5.33689e-12
5.05317e-12
2.34792e-12
3.32442e-13
2.41367e-13
1.97088e-13
6.75918e-14
9.30608e-15
7.91907e-15
5.29428e-15
1.23188e-15
1.37653e-15
2.03053e-16
1.0285e-16
5.056e-17
3.02819e-16
4.71431e-18
1.81451e-18
4.03123e-18
8.21457e-17
1.04424e-19
2.97316e-20
9.31567e-19
1.54496e-17
2.09697e-21
3.70421e-22
3.48232e-19
5.16306e-18
3.54666e-23
9.16756e-24
7.28191e-20
2.65036e-18
5.37906e-25
5.04892e-25
8.61022e-21
9.63469e-19
7.35659e-27
1.12581e-25
5.5572e-22
2.2552e-20
1.25751e-28
6.55219e-27
5.25465e-25
1.44063e-24
0.561025
0.554871
0.532596
0.219312
0.181746
0.030877
0.0175276
0.0175664
0.0178886
0.0185117
0.0413482
0.114008
0.0868593
0.0864161
0.365006
0.581166
0.702997
0.70251
0.632481
0.211986
0.25496
0.376771
0.395163
0.396825
0.191002
0.0175664
0.0175374
0.0175664
0.0231392
0.125556
0.101142
0.102688
0.55051
0.695844
0.696362
0.653647
0.53818
0.53813
0.0944082
0.0999698
0.260987
0.396825
0.396825
0.396825
0.292642
0.0280055
0.0178886
0.072814
0.139256
0.145124
0.534925
0.695094
0.696362
0.694317
0.597507
0.55234
0.676565
0.0910401
0.0944082
0.0985572
0.340151
0.396825
0.393029
0.389233
0.347218
0.0900044
0.0766197
0.247798
0.637431
0.692942
0.696189
0.684113
0.337441
0.164251
0.420576
0.676565
0.248942
0.297976
0.0944741
0.0361101
0.28758
0.378702
0.158416
0.111098
0.112288
0.367112
0.685304
0.688684
0.691555
0.666897
0.203398
0.00113129
0.00130329
0.0194122
0.233484
0.24118
0.521948
0.590097
0.0348122
0.0180705
0.0145022
0.038695
0.102692
0.162637
0.404603
0.669283
0.685304
0.591564
0.171551
0.00112237
0.000875737
0.000809344
0.00130145
0.00306813
0.354016
0.365436
0.590097
0.390552
0.0182001
0.0114395
0.0290936
0.242437
0.299902
0.310309
0.272456
0.110796
0.00761816
0.00133077
0.000875845
0.000791585
0.000738
0.00312635
0.0522359
0.0542972
0.0976716
0.590097
0.570588
0.0519637
0.00770144
0.0118146
0.0371038
0.0528864
0.0308251
0.000474138
0.000795237
0.00100069
0.00102369
0.000888977
0.000711083
0.000666165
0.00286058
0.0712044
0.00813276
0.00831902
0.40792
0.570706
0.143414
0.0033762
0.001806
8.63059e-05
6.69174e-05
0.000115236
0.000243358
0.00138783
0.00308243
0.00328526
0.00268378
0.00253334
0.000677466
0.000216455
0.0713357
0.00771882
0.00807063
0.0585036
0.570404
0.0948624
0.00345158
0.000107587
3.10639e-05
1.98487e-05
0.000145272
0.00250075
0.00336302
0.00337777
0.00339269
0.00339191
0.00339267
0.00125985
1.82867e-06
0.0710759
0.00482673
0.00333091
0.0198708
0.565246
0.147558
0.000242857
2.96142e-05
1.32321e-05
6.68256e-06
4.75945e-05
0.000874004
0.00271677
0.00295729
0.00293443
0.00339191
0.00277414
0.000924927
1.8014e-06
0.0702583
0.000387033
0.000410404
0.0282295
0.368444
0.149926
7.50778e-05
9.54697e-06
4.57981e-06
3.79477e-06
2.05111e-05
0.000101914
4.44836e-06
3.33447e-06
2.12803e-06
0.00179641
1.73899e-06
8.1271e-05
1.78017e-06
0.0688311
0.00023906
0.000456068
0.0149336
0.0436501
0.0702296
2.20606e-05
3.86008e-06
3.22986e-06
2.74337e-06
3.30369e-06
9.15632e-06
3.33447e-06
2.12803e-06
1.73899e-06
1.73899e-06
1.73899e-06
1.73899e-06
1.74307e-06
0.0654092
0.000263973
0.00257163
0.00256081
0.00223149
3.37566e-05
6.03268e-06
1.65933e-06
2.89734e-06
1.67321e-06
5.34593e-07
7.91871e-07
1.21645e-05
1.3015e-05
1.90341e-06
1.73899e-06
1.7379e-06
1.74307e-06
1.78017e-06
0.0255495
8.08401e-05
0.000141288
0.000324364
0.000216026
7.66344e-06
1.61792e-06
8.95023e-07
2.39315e-06
5.49172e-07
5.22914e-07
5.87353e-06
1.48449e-05
1.45373e-05
4.45539e-06
1.4297e-06
1.77808e-06
1.80881e-06
1.92824e-06
0.0013429
6.25956e-06
1.76408e-05
2.64398e-05
9.82403e-06
1.61772e-06
8.95039e-07
6.3901e-07
5.26746e-07
5.22914e-07
5.22914e-07
6.83079e-07
5.54322e-06
5.22668e-07
6.12676e-07
7.864e-07
1.62073e-06
2.80275e-06
2.42477e-06
9.99194e-06
6.24204e-06
6.2151e-06
6.57056e-06
7.98575e-06
5.73877e-06
1.61811e-06
8.03422e-07
5.45126e-07
5.24498e-07
5.22914e-07
5.24498e-07
5.22668e-07
4.8535e-07
5.22667e-07
1.3543e-06
7.79839e-06
2.07542e-05
5.59245e-06
1.17799e-05
6.19758e-06
6.11693e-06
6.27838e-06
7.13314e-06
3.03887e-05
0.00011217
0.000173434
2.7138e-05
5.35077e-07
5.24498e-07
2.75961e-06
1.84428e-06
4.33833e-07
4.8535e-07
0.000170279
0.00015687
2.4578e-05
5.73967e-05
1.52262e-05
5.42357e-05
6.13577e-06
6.12025e-06
7.78782e-06
8.0636e-05
0.000625764
0.000673503
0.000128884
2.17527e-06
5.39033e-07
4.50797e-06
4.46917e-06
3.55412e-07
6.71862e-05
0.000427662
0.000236916
1.59108e-05
8.56592e-05
1.73545e-05
0.00018346
0.000456176
0.000649002
0.000478577
0.000617875
0.000685331
0.000685331
0.000190908
7.46515e-07
6.8784e-07
4.557e-06
3.21472e-06
3.09475e-07
0.00034371
0.000427662
8.68455e-05
1.50731e-05
8.57168e-05
1.2822e-05
0.000277222
0.000701611
0.000701611
0.000701611
0.000699206
0.000683933
0.000293418
3.442e-08
8.1512e-08
3.45529e-06
4.56928e-06
1.4326e-06
2.77898e-07
0.000423093
0.000427662
1.56839e-05
1.42731e-05
8.5646e-05
6.31958e-06
5.32507e-07
1.20413e-05
4.56327e-05
0.000138643
0.000121847
9.45888e-11
1.42995e-10
1.72419e-10
3.442e-08
4.37698e-06
4.56928e-06
1.68895e-06
2.39027e-07
0.000411039
0.000390431
1.35322e-05
1.3552e-05
8.49367e-05
3.64404e-06
4.88994e-07
8.79526e-10
2.0644e-10
1.44799e-10
1.39412e-10
1.39364e-10
1.40987e-10
1.42995e-10
3.72667e-07
4.5322e-06
4.56928e-06
1.11769e-06
2.06907e-07
0.00040012
7.50156e-05
1.35103e-05
1.36957e-05
3.20017e-05
3.37716e-06
6.2518e-07
2.12161e-09
2.63746e-10
1.13632e-10
1.35903e-10
1.37599e-10
1.39364e-10
1.40986e-10
3.21559e-06
4.54413e-06
4.56147e-06
3.56361e-07
1.9377e-07
0.000337918
5.1744e-05
1.36957e-05
9.54914e-06
3.65061e-06
3.37715e-06
3.12946e-09
3.45054e-10
1.02147e-10
9.07365e-11
1.35003e-10
1.32527e-10
1.37411e-10
1.41604e-10
4.41721e-06
4.53301e-06
2.83847e-06
6.96691e-08
1.43872e-07
0.000190398
0.000112584
1.65166e-05
0.000402822
9.94938e-05
4.58326e-06
5.6571e-10
6.08571e-11
2.05935e-11
1.61166e-11
8.13495e-11
9.65403e-11
1.19536e-10
5.88325e-09
3.6305e-06
4.53403e-06
9.50917e-07
3.70571e-09
4.49811e-08
0.000105535
0.000116554
2.76014e-05
0.000954191
0.000423314
1.01873e-05
5.01828e-11
9.46165e-12
7.0258e-12
1.06792e-11
4.80324e-11
1.36946e-09
1.60985e-09
9.51566e-10
5.68898e-07
3.82292e-07
9.03448e-10
1.81316e-09
2.1471e-06
8.38097e-05
7.65705e-05
0.000176244
0.000967636
0.000653406
1.88755e-05
2.91584e-12
3.72497e-12
4.53954e-12
5.1577e-12
5.32274e-12
5.88222e-09
8.74849e-09
6.78986e-09
3.85639e-10
5.77948e-10
5.99861e-10
9.03448e-10
5.43232e-05
8.70824e-05
2.51552e-05
0.000709164
0.000970882
0.000754042
3.0596e-05
1.80999e-12
3.2515e-12
4.40343e-12
5.68008e-12
1.32325e-11
6.72758e-09
8.74849e-09
4.65069e-09
2.30983e-10
3.78396e-10
5.77902e-10
1.50958e-09
9.79893e-06
8.13892e-05
1.93158e-06
0.000932573
0.000970882
0.000766452
4.25991e-05
8.19352e-13
1.65881e-12
3.6349e-12
1.9691e-11
1.9945e-10
3.90312e-10
1.06471e-09
4.62912e-10
1.30733e-11
3.20149e-11
1.7254e-09
1.08421e-08
1.2081e-07
3.26987e-06
1.74366e-06
0.000521965
0.000970882
0.000675285
4.54968e-05
1.50743e-13
6.06499e-13
4.43076e-12
8.67965e-12
9.42899e-12
1.72255e-12
2.10895e-12
3.4154e-12
1.06547e-11
8.59243e-12
2.04775e-08
5.68089e-07
4.1022e-06
1.75842e-06
1.80807e-06
0.000171506
0.000957116
0.000564534
3.18654e-05
1.88586e-14
3.09511e-13
2.23799e-12
4.86226e-12
3.45038e-12
1.6527e-12
1.16625e-12
7.49402e-12
1.30748e-11
-4.36104e-10
1.0626e-05
3.49994e-05
1.94322e-05
1.81158e-06
1.74349e-06
0.000161035
0.000923006
0.0005197
1.91413e-05
1.02346e-14
1.58405e-14
8.42375e-14
1.7994e-13
2.64427e-13
2.17228e-13
4.4596e-13
5.84583e-11
3.08557e-11
2.10285e-06
4.86354e-05
4.92128e-05
4.28507e-05
2.82838e-06
1.81158e-06
0.00043396
0.000888301
0.000458017
7.39409e-06
3.39357e-15
6.15333e-15
3.54263e-14
8.90145e-14
9.58797e-14
1.36561e-13
7.45522e-13
2.86805e-09
1.76651e-10
2.22928e-05
4.92128e-05
4.92128e-05
3.46695e-05
4.3412e-06
2.89552e-05
0.000859595
0.000871827
0.000257912
7.04946e-07
1.1788e-15
1.76437e-15
3.99206e-13
3.5504e-13
1.36529e-13
5.28826e-13
3.41259e-08
1.09711e-07
1.07056e-09
2.796e-06
4.91653e-05
4.92128e-05
3.92665e-05
6.64418e-06
7.71356e-06
0.000707856
0.000631784
2.44825e-05
1.19264e-08
3.88645e-16
3.44742e-16
2.44422e-12
8.40509e-13
5.32344e-13
6.50672e-12
1.27043e-07
1.52284e-07
2.51252e-08
1.66162e-09
3.44254e-05
4.91653e-05
4.47763e-05
7.71356e-06
7.65187e-05
0.000215409
3.5989e-05
2.90661e-12
1.96087e-14
7.68617e-17
1.41397e-18
6.24626e-12
9.10186e-13
6.71681e-11
6.40761e-09
7.59692e-08
2.18324e-08
4.66365e-11
2.36384e-10
8.94828e-06
4.89177e-05
4.78081e-05
3.18574e-05
6.89756e-06
-9.78118e-17
-9.25186e-15
2.10832e-28
-3.52074e-30
2.27396e-17
1.00171e-18
8.53384e-12
9.41222e-12
1.42055e-09
4.14866e-09
1.98285e-13
2.43875e-12
3.08517e-12
3.1643e-12
8.32697e-07
2.35365e-05
2.77997e-05
3.8494e-06
0
-2.30889e-15
-2.34236e-14
-8.87384e-15
-8.22557e-16
5.67862e-18
7.83507e-19
8.31525e-12
8.36608e-11
4.24645e-10
1.26221e-13
1.07172e-13
4.7945e-12
3.02751e-12
2.88864e-12
3.1643e-12
1.08295e-11
1.36614e-10
6.08066e-16
-4.59664e-16
-6.48963e-15
-9.02835e-14
-2.212e-14
-1.65196e-15
5.41406e-19
5.52924e-19
6.21203e-12
5.82391e-11
1.47647e-12
1.07172e-13
1.06586e-13
1.09402e-11
1.44002e-12
2.60913e-12
1.891e-11
4.50361e-11
4.79641e-08
1.67536e-07
7.15317e-16
0
3.9109e-16
1.19018e-17
3.25479e-18
8.95595e-21
1.49168e-17
5.44018e-13
6.40263e-12
3.79393e-12
1.19934e-13
7.56863e-14
9.0434e-12
8.06143e-13
5.13627e-12
2.5695e-10
8.03093e-10
4.1355e-08
8.73293e-08
-1.1408e-18
-1.21838e-17
-5.77397e-19
-2.38641e-20
1.69384e-20
1.52761e-24
7.1781e-17
1.24505e-29
-2.35828e-37
2.30301e-40
0
1.71896e-15
1.21138e-12
4.72074e-14
1.87463e-13
2.96068e-10
1.71498e-09
-3.61234e-21
-3.85392e-20
-2.40114e-19
-8.13963e-18
-7.08222e-19
-2.87925e-20
-4.26045e-22
)
;

boundaryField
{
    leftWall
    {
        type            zeroGradient;
    }
    rightWall
    {
        type            zeroGradient;
    }
    lowerWall
    {
        type            zeroGradient;
    }
    atmosphere
    {
        type            inletOutlet;
        inletValue      uniform 0;
        value           nonuniform List<scalar> 
46
(
-1.66265e-23
-2.90917e-24
-4.4438e-24
-2.15719e-24
-5.56476e-25
-9.42241e-26
-7.01204e-27
0
7.13234e-29
-4.79926e-26
-9.76626e-25
-8.2814e-24
-3.87242e-23
-1.00232e-22
-1.5212e-22
-1.48425e-22
-9.87915e-23
-4.70116e-23
-1.63192e-23
-3.56625e-24
-3.94984e-25
-1.75293e-26
7.06128e-45
0
0
0
0
0
0
0
0
0
0
0
0
0
0
0
0
0
0
0
0
0
0
0
)
;
    }
    defaultFaces
    {
        type            empty;
    }
}


// ************************************************************************* //
