/*--------------------------------*- C++ -*----------------------------------*\
| =========                 |                                                 |
| \\      /  F ield         | OpenFOAM: The Open Source CFD Toolbox           |
|  \\    /   O peration     | Version:  2206                                  |
|   \\  /    A nd           | Website:  www.openfoam.com                      |
|    \\/     M anipulation  |                                                 |
\*---------------------------------------------------------------------------*/
FoamFile
{
    version     2.0;
    format      ascii;
    arch        "LSB;label=32;scalar=64";
    class       volScalarField;
    location    "0.85";
    object      p;
}
// * * * * * * * * * * * * * * * * * * * * * * * * * * * * * * * * * * * * * //

dimensions      [1 -1 -2 0 0 0 0];

internalField   nonuniform List<scalar> 
2268
(
979.22
973.952
965.262
955.962
950.194
947.421
944.425
938.751
929.778
917.823
904.055
890.324
878.229
867.218
856.328
848.713
845.347
847.54
853.342
861.496
864.7
862.247
856.076
921.522
915.12
904.692
893.875
888.187
887.443
885.917
880.572
871.609
859.407
845.295
831.259
818.965
809.027
800.681
792.359
784.996
783.857
793.114
801.463
804.21
800.697
795.751
859.467
852.152
840.994
830.046
826.115
827.728
827.795
823.091
814.023
801.247
786.321
771.527
758.985
749.969
743.677
735.464
727.938
727.784
734.825
741.004
742.807
737.876
733.737
792.996
785.499
774.717
764.229
762.393
767.561
770.358
766.631
757.369
743.621
727.381
711.476
698.36
689.25
683.963
677.803
672.344
671.894
676.201
679.892
680.473
673.459
669.999
723.139
716.083
706.309
696.764
697.872
707.933
714.283
711.515
701.696
686.395
668.163
650.602
636.633
627.898
623.1
619.663
616.072
614.823
616.538
618.518
618.159
607.89
605.302
651.162
644.718
636.554
629.105
634.368
650.196
660.122
658.08
647.273
629.678
608.607
588.743
573.567
564.659
560.963
559.597
557.933
556.528
556.573
557.421
556.212
544.179
542.5
577.934
572.2
566.379
562.649
573.013
594.463
607.846
606.637
594.421
573.609
548.656
525.721
508.965
499.934
497.663
498.794
499.144
497.748
496.506
496.601
495.383
486.215
481.574
504.867
499.388
496.6
498.202
514.435
541.857
558.584
557.355
543.48
518.222
487.707
460.726
442.143
433.256
433.064
437.485
440.052
438.477
436.141
436.002
435.363
430.312
424.063
742.954
714.012
700.757
669.537
637.295
585.311
544.333
541.318
575.278
599.515
601.162
608.109
583.514
531.21
468.915
380.134
399.506
584.991
785.058
704.773
667.159
666.845
610.695
585.408
527.257
486.31
491.634
519.707
540.581
538.216
559.962
548.932
488.438
403.363
311.341
318.935
466.624
710.655
684.552
630.937
640.601
567.572
500.042
438.282
413.966
426.834
444.595
461.328
479.144
515.424
525.517
459.304
354.988
258.669
249.765
355.895
606.583
689.895
626.195
602.567
511.599
381.403
325.58
336.467
356.235
364.434
377
404.585
457.457
471.842
429.923
321.504
224.305
207.58
297.374
544.579
674.873
636.281
559.23
423.163
269.236
231.821
271.309
290.974
285.382
300.99
330.312
380.122
398.875
383.824
304.617
215.294
201.738
285.571
539.03
651.846
636.458
527.244
321.159
208.522
190.783
222.389
234.374
221.067
237.543
270.232
309.812
331.648
342.334
300.157
230.044
233.292
334.339
553.576
636.627
635.63
502.297
233.829
182.784
179.319
191.816
201.164
200.048
211.234
241.548
275.901
280.034
327.417
335.618
309.7
327.837
389.229
531.53
633.048
619.793
460.527
212.483
175.148
173.012
181.18
191.075
194.861
201.188
222.607
247.803
254.716
317.711
372.615
395.517
379.128
393.855
473.176
389.497
386.333
389.365
403.005
430.638
461.412
481.284
483.072
466.861
431.371
389.127
354.446
332.672
324.589
329.376
341.326
348.356
345.831
341.467
341.962
341.692
334.047
310.127
234.738
231.679
238.518
252.508
284.268
331.573
369.024
374.81
375.366
325.253
253.092
200.379
172.921
166.752
184.332
220.782
240.357
227.667
213.198
219.373
224.463
198.692
127.834
109.374
97.0128
89.7546
96.1301
143.317
229.436
315.665
377.336
345.184
242.992
143.081
95.9586
72.5183
66.9527
87.6655
138.741
154.803
128.534
115.404
128.169
135.485
86.176
-24.8155
53.2001
36.783
22.9985
18.997
28.1989
65.0084
121.63
132.628
123.281
93.6203
76.0877
60.6666
45.7896
39.1187
48.7409
75.2691
88.3789
70.9008
65.6879
73.1311
75.1778
35.0977
-54.7337
20.7344
11.8152
3.77603
0.955617
0.446721
2.31567
6.39027
7.98881
7.25003
10.0599
21.5789
29.0318
30.9731
26.3286
22.1276
32.884
32.8204
23.0327
22.9093
24.3057
18.0259
29.7364
32.2307
6.66112
1.52091
-1.61793
-2.62502
-2.87869
-3.06403
-2.93713
-2.56141
-2.20964
-1.81172
-0.810019
3.24479
5.26935
2.90404
1.95306
2.02563
6.33404
-6.94856
-8.16652
2.7755
11.3957
40.8258
35.2951
-0.499324
-2.94535
-3.73761
-3.89834
-3.69139
-3.42016
-3.09211
-2.71917
-2.35904
-2.10185
-1.91449
-1.70302
-1.47811
-1.28151
-0.901121
-0.881029
-2.061
-9.70914
-20.5562
7.55043
42.4619
39.1745
27.9193
-2.49902
-5.08089
-4.9602
-4.74437
-4.30954
-3.81621
-3.31989
-2.85582
-2.46699
-2.17636
-1.95532
-1.74386
-1.55021
-1.35121
-1.2512
-1.31476
-1.68467
-4.38065
-10.3978
2.47132
29.2515
42.8239
28.789
-2.59571
-5.72793
-5.64384
-5.25208
-4.60605
-4.00147
-3.45707
-2.99564
-2.61942
-2.31876
-2.0775
-1.87929
-1.73507
-1.63804
-1.62153
-1.70249
-1.99834
-2.64139
-1.03718
19.1755
46.1115
41.5884
17.521
-2.41857
-5.11151
-5.89122
-5.4335
-4.73189
-4.0997
-3.52582
-3.05812
-2.69376
-2.41593
-2.20596
-2.0433
-1.92196
-1.88011
-1.92817
-2.0639
-2.33235
-2.56663
-1.41066
6.4828
35.9146
52.0266
40.6215
-2.23253
-3.98138
-5.40295
-5.23422
-4.6414
-4.05921
-3.4831
-3.04689
-2.72245
-2.48657
-2.31199
-2.18516
-2.10913
-2.10027
-2.17987
-2.36902
-2.65173
-2.83436
-2.31701
0.646995
15.7103
21.5439
17.3417
-2.06107
-2.93514
-4.39377
-4.62516
-4.28935
-3.83094
-3.35588
-2.96864
-2.70099
-2.5231
-2.39973
-2.32005
-2.28423
-2.3056
-2.40647
-2.59972
-2.83184
-2.93905
-2.72881
-1.95359
2.59808
8.91801
10.2204
-2.11398
-2.39503
-3.2936
-3.75502
-3.71785
-3.45492
-3.11939
-2.83421
-2.64904
-2.53649
-2.46836
-2.43451
-2.4342
-2.47398
-2.57304
-2.7328
-2.90414
-2.96507
-2.88162
-2.79767
-2.00728
1.88695
5.54336
-2.27687
-2.2515
-2.51433
-2.87812
-3.05063
-2.99485
-2.83265
-2.6822
-2.59046
-2.54622
-2.52811
-2.53108
-2.5566
-2.60333
-2.68691
-2.79874
-2.90914
-2.94875
-2.93282
-2.88397
-2.71518
-1.67749
1.79842
-2.37989
-2.2416
-2.1369
-2.28755
-2.50033
-2.59207
-2.58801
-2.56451
-2.55868
-2.56966
-2.58989
-2.61875
-2.65877
-2.71162
-2.78014
-2.85815
-2.92895
-2.96693
-2.97896
-2.97056
-2.81138
-2.33575
-1.51876
-2.3933
-2.23929
-2.01347
-2.03711
-2.21167
-2.3633
-2.45486
-2.51577
-2.56771
-2.61556
-2.66091
-2.70662
-2.75568
-2.81039
-2.87121
-2.93338
-2.9865
-3.01952
-3.04314
-3.04082
-2.87241
-2.77706
-2.29591
-2.34943
-2.22367
-2.04696
-2.04108
-2.17088
-2.3206
-2.4428
-2.53902
-2.61791
-2.68471
-2.74384
-2.7992
-2.85366
-2.90934
-2.96684
-3.02349
-3.07346
-3.10974
-3.14329
-3.15025
-3.07472
-3.05683
-2.56691
-2.34389
-2.27055
-2.17528
-2.17889
-2.27444
-2.39848
-2.51449
-2.6146
-2.69989
-2.77322
-2.83822
-2.89819
-2.95553
-3.01201
-3.06837
-3.12356
-3.17531
-3.21947
-3.26436
-3.29467
-3.38021
-3.42407
-3.2705
-2.42739
-2.39451
-2.35046
-2.36439
-2.4362
-2.53242
-2.63038
-2.72144
-2.80317
-2.87606
-2.94209
-3.00344
-3.06187
-3.11878
-3.17494
-3.23005
-3.28379
-3.33339
-3.38532
-3.4318
-3.55003
-3.58165
-3.78237
-2.56369
-2.55402
-2.53677
-2.55608
-2.61147
-2.68572
-2.76596
-2.84507
-2.9196
-2.9887
-3.053
-3.1137
-3.17198
-3.22885
-3.28513
-3.34085
-3.39635
-3.44988
-3.50282
-3.5565
-3.62012
-3.60183
-3.65005
-2.71834
-2.71834
-2.71695
-2.73912
-2.78378
-2.84278
-2.9089
-2.97689
-3.04355
-3.10751
-3.16864
-3.22746
-3.28471
-3.34119
-3.39773
-3.45483
-3.51296
-3.57245
-3.62993
-3.69439
-3.75273
-3.74717
-3.5574
-2.87913
-2.88055
-2.8884
-2.91165
-2.94939
-2.998
-3.05342
-3.11205
-3.1713
-3.22979
-3.28707
-3.34327
-3.39889
-3.45464
-3.51147
-3.5705
-3.63273
-3.70109
-3.77345
-3.86571
-3.98061
-4.01218
-3.78068
-3.03977
-3.0413
-3.05314
-3.07583
-3.10859
-3.14976
-3.197
-3.2479
-3.30052
-3.35365
-3.40678
-3.45987
-3.5133
-3.56781
-3.62452
-3.68516
-3.75177
-3.82946
-3.92168
-4.05055
-4.24592
-4.3976
-4.1901
-3.19774
-3.1997
-3.21252
-3.23365
-3.26237
-3.29783
-3.3386
-3.38306
-3.42979
-3.47781
-3.52664
-3.57622
-3.62687
-3.67935
-3.7349
-3.79565
-3.86473
-3.94848
-4.05594
-4.21596
-4.48101
-4.88747
-4.83264
-3.35254
-3.35493
-3.36731
-3.38644
-3.41166
-3.44246
-3.4779
-3.51687
-3.5583
-3.60146
-3.64593
-3.69163
-3.73884
-3.78827
-3.84116
-3.8996
-3.96706
-4.05006
-4.15835
-4.32233
-4.5898
-5.00829
-5.17703
-3.50419
-3.50678
-3.51812
-3.53513
-3.55721
-3.58403
-3.61492
-3.64907
-3.68569
-3.72421
-3.76427
-3.80577
-3.84892
-3.89428
-3.94285
-3.99632
-4.05738
-4.13108
-4.22295
-4.35114
-4.53711
-4.83246
-5.0177
-3.65278
-3.65536
-3.66547
-3.6804
-3.69965
-3.72295
-3.74984
-3.77968
-3.81188
-3.84597
-3.88162
-3.91871
-3.95734
-3.99784
-4.04085
-4.08739
-4.13891
-4.19804
-4.26625
-4.34991
-4.44719
-4.59209
-4.71085
-3.79847
-3.80089
-3.80977
-3.82276
-3.83944
-3.85961
-3.88292
-3.90886
-3.93697
-3.96685
-3.99819
-4.03082
-4.06472
-4.10002
-4.13698
-4.17603
-4.2177
-4.26279
-4.31116
-4.36454
-4.41659
-4.47833
-4.53627
-3.94149
-3.94366
-3.95137
-3.9626
-3.97696
-3.99435
-4.01444
-4.03684
-4.06117
-4.08709
-4.11431
-4.14261
-4.17187
-4.20206
-4.23319
-4.26534
-4.29859
-4.33301
-4.36823
-4.40476
-4.43928
-4.47318
-4.50245
-4.08208
-4.08396
-4.09061
-4.10024
-4.11254
-4.12743
-4.14464
-4.16384
-4.18473
-4.20699
-4.23034
-4.25456
-4.27947
-4.30493
-4.33083
-4.35707
-4.38356
-4.41015
-4.43653
-4.46262
-4.487
-4.50901
-4.52621
-4.22046
-4.22205
-4.22774
-4.23596
-4.24643
-4.2591
-4.27374
-4.29008
-4.30785
-4.32677
-4.3466
-4.36709
-4.38803
-4.40925
-4.43057
-4.45181
-4.47281
-4.49335
-4.51312
-4.5318
-4.54868
-4.56327
-4.57439
-4.3569
-4.35822
-4.36305
-4.37001
-4.37886
-4.38957
-4.40193
-4.41573
-4.43071
-4.44665
-4.4633
-4.48044
-4.49784
-4.51533
-4.53268
-4.54972
-4.56623
-4.582
-4.59676
-4.61027
-4.62218
-4.63234
-4.6403
-4.49166
-4.49273
-4.4968
-4.50265
-4.51006
-4.51904
-4.5294
-4.54094
-4.55346
-4.56674
-4.58057
-4.59475
-4.60905
-4.62329
-4.63727
-4.65079
-4.66368
-4.67574
-4.68681
-4.69675
-4.70541
-4.71279
-4.71871
-4.62498
-4.62584
-4.62922
-4.6341
-4.64025
-4.6477
-4.6563
-4.66586
-4.6762
-4.68715
-4.69851
-4.71008
-4.72169
-4.73315
-4.74427
-4.7549
-4.76487
-4.77406
-4.78235
-4.78968
-4.79602
-4.80142
-4.80587
-4.75711
-4.75778
-4.76057
-4.76458
-4.76963
-4.77574
-4.78278
-4.79059
-4.79903
-4.80794
-4.81713
-4.82646
-4.83575
-4.84483
-4.85356
-4.86179
-4.86941
-4.87632
-4.88245
-4.8878
-4.89238
-4.89631
-4.89967
-4.88828
-4.88878
-4.89104
-4.89431
-4.89838
-4.9033
-4.90898
-4.91526
-4.92204
-4.92915
-4.93647
-4.94385
-4.95115
-4.95822
-4.96494
-4.9712
-4.9769
-4.98197
-4.9864
-4.9902
-4.99343
-4.99623
-4.99871
-5.0187
-5.01903
-5.02083
-5.02344
-5.02665
-5.03054
-5.03501
-5.03996
-5.04527
-5.05083
-5.05652
-5.06222
-5.06782
-5.07319
-5.07823
-5.08285
-5.08698
-5.09058
-5.09365
-5.09622
-5.09838
-5.10027
-5.10203
-5.14854
-5.14869
-5.1501
-5.15214
-5.15459
-5.15757
-5.16098
-5.16475
-5.16878
-5.17299
-5.17727
-5.18153
-5.18567
-5.1896
-5.19324
-5.19652
-5.19938
-5.2018
-5.20378
-5.20539
-5.2067
-5.20786
-5.20906
-5.27795
-5.27791
-5.279
-5.28053
-5.2823
-5.28448
-5.28696
-5.28969
-5.29261
-5.29564
-5.2987
-5.30172
-5.30463
-5.30736
-5.30983
-5.31201
-5.31385
-5.31534
-5.3165
-5.31736
-5.31803
-5.31866
-5.31945
-5.40707
-5.40686
-5.40768
-5.40873
-5.40991
-5.41138
-5.41303
-5.41486
-5.4168
-5.4188
-5.42081
-5.42278
-5.42465
-5.42637
-5.4279
-5.4292
-5.43025
-5.43105
-5.43159
-5.43194
-5.43218
-5.43243
-5.43292
-5.53588
-5.53555
-5.53615
-5.53676
-5.53741
-5.53825
-5.53917
-5.54019
-5.54127
-5.54238
-5.54349
-5.54456
-5.54556
-5.54647
-5.54725
-5.54788
-5.54836
-5.54867
-5.54884
-5.54888
-5.54885
-5.54886
-5.54906
-5.66511
-5.66472
-5.66492
-5.66511
-5.66531
-5.66558
-5.66584
-5.66615
-5.66646
-5.66677
-5.66707
-5.66735
-5.6676
-5.6678
-5.66795
-5.66805
-5.66809
-5.66806
-5.66799
-5.66787
-5.66774
-5.66765
-5.66767
256.433
233.073
337.598
382.628
26.5694
16.6235
167.015
283.233
-133.508
-95.8288
92.6437
192.982
-116.681
-18.5464
80.45
145.121
18.5913
26.1208
67.3305
110.797
16.3871
25.4989
53.0998
81.1688
12.0656
15.1079
33.5666
52.3164
9.73968
8.82078
19.3649
20.655
0.570343
7.61645
12.5449
9.09219
22.9554
5.29802
6.83802
4.56236
9.87283
3.60379
4.6191
-0.404113
7.32985
2.88905
1.59637
-3.47239
4.81884
1.12482
-1.37726
-3.33924
2.41353
-0.544804
-1.13415
-2.98818
-0.843265
-1.93789
-2.59989
-2.97758
-2.04174
-2.66864
-2.69389
-3.06421
-2.53633
-2.44584
-2.97341
-3.36292
-3.77154
-3.33332
-3.38034
-3.72199
-4.10989
-4.03278
-3.63813
-3.83988
-3.91493
-3.9289
-3.66929
-3.6912
-3.85166
-3.93569
-3.73025
-3.60386
-4.02831
-4.08287
-3.92685
-3.74088
-4.21761
-4.26779
-4.14951
-3.93345
-4.50987
-4.47334
-4.34858
-4.09659
-4.89651
-4.65418
-4.45583
-4.2164
-4.93626
-4.68477
-4.46142
-4.27401
-4.72679
-4.58994
-4.43009
-4.31203
-4.55981
-4.51393
-4.43003
-4.36236
-4.52145
-4.50531
-4.46334
-4.42411
-4.53786
-4.5331
-4.51396
-4.49237
-4.58301
-4.58427
-4.57703
-4.56618
-4.64731
-4.65094
-4.64965
-4.64536
-4.72437
-4.72871
-4.73039
-4.72993
-4.81046
-4.81485
-4.81789
-4.81958
-4.90338
-4.90747
-4.91109
-4.9141
-5.00165
-5.00537
-5.00931
-5.01341
-5.10434
-5.1078
-5.11212
-5.11733
-5.21091
-5.21427
-5.21908
-5.22541
-5.32097
-5.32433
-5.32964
-5.33698
-5.43414
-5.43742
-5.44321
-5.45152
-5.54988
-5.55296
-5.55938
-5.56878
-5.66808
-5.67106
-5.67816
-5.68867
557.831
535.958
397.821
220.717
162.978
167.032
175.981
184.678
187.346
190.718
204.322
224.39
255.531
300.572
343.178
355.192
357.009
356.71
389.006
339.066
338.406
294.632
210.67
160.815
167.008
174.074
177.046
178.767
182.493
197.654
221.281
238.809
263.058
294.341
303.756
309.756
329.469
351.692
227.434
235.05
223.021
184.284
132.55
120.027
156.419
171.934
175.442
179.611
196.418
212.045
209.397
202.656
197.656
205.975
244.503
286.952
296.116
178.237
189.452
187.424
171.425
118.709
67.4316
53.9393
131.785
161.936
172.716
180.534
170.034
146.319
131.763
118.216
69.8329
109.802
179.047
245.891
141.547
158.609
173.276
152.896
117.363
95.0715
81.0193
95.7845
120.387
134.221
129.063
103.301
76.6846
59.9647
44.3707
25.4597
27.009
57.4803
165.676
100.271
115.833
122.642
119.73
105.459
89.3092
86.2062
86.9987
82.7791
72.5894
65.3017
43.1678
23.2762
7.39998
5.92012
3.54665
2.92483
17.1402
60.4863
51.9811
52.0635
79.1998
94.6889
81.4348
60.2574
45.3863
34.8017
35.9176
22.5316
15.4546
6.36322
-1.28031
-0.740677
-0.626267
-2.9703
-3.48633
1.39552
13.1269
12.9474
12.5
29.0339
34.7043
38.0653
23.2798
11.2424
3.6902
2.56075
1.24443
-0.0342322
-0.237618
0.7946
2.17103
1.71095
-0.80921
-1.8409
-1.85186
5.75033
4.91937
3.46412
8.48777
0.805176
-1.84374
1.54235
1.21391
0.344797
-0.274673
-1.05008
-1.17426
-0.637199
1.07383
2.93499
2.99558
0.282803
-1.02104
-1.56339
1.4533
0.847762
-0.123798
-1.01841
-6.37132
-13.0017
-3.17329
-1.10714
-1.01139
-1.30948
-2.13418
-2.77818
-2.56989
-1.20628
0.145608
0.659975
-0.670116
-1.31314
-1.36821
-0.902105
-2.6336
-3.1477
-3.60235
-1.31014
-4.75503
-2.26548
-1.58896
-1.94405
-2.28414
-3.04887
-3.71497
-3.52877
-2.79558
-2.08547
-1.38191
-1.59002
-1.70022
-1.60024
-1.48551
-4.44959
-4.55864
-4.59047
-2.8461
-3.55258
-2.206
-1.89707
-2.24789
-2.46587
-3.00449
-3.35284
-3.32014
-2.9654
-2.55884
-2.17367
-2.03826
-2.00269
-1.88909
-1.80342
-5.06216
-5.54198
-6.83176
-13.0156
-6.61492
-2.85053
-2.10364
-2.11659
-2.22763
-2.54387
-2.79183
-2.85828
-2.72271
-2.50441
-2.3344
-2.20524
-2.18686
-2.13439
-1.93231
-4.51375
-5.88108
-8.36965
-10.4745
-7.13059
-2.96552
-2.14484
-1.89894
-1.93438
-2.11479
-2.27776
-2.42051
-2.46293
-2.43044
-2.36435
-2.32648
-2.33416
-2.32178
-2.21697
-3.93906
-5.03484
-6.30882
-6.71444
-4.83364
-2.68092
-2.08489
-1.81813
-1.8401
-1.97638
-2.13757
-2.28019
-2.383
-2.43216
-2.42745
-2.42773
-2.44669
-2.46548
-2.53307
-3.8284
-4.55484
-5.03288
-4.78848
-3.76464
-2.70095
-2.2158
-1.97454
-1.97871
-2.09531
-2.23811
-2.34545
-2.43339
-2.48958
-2.50308
-2.5128
-2.53222
-2.53945
-2.56676
-4.01131
-4.50025
-4.75636
-4.50941
-3.91367
-3.25159
-2.69953
-2.36586
-2.28203
-2.32964
-2.41941
-2.48909
-2.54448
-2.58214
-2.59058
-2.60015
-2.61292
-2.60675
-2.62653
-4.26803
-4.65619
-4.87228
-4.80243
-4.45871
-3.9259
-3.24378
-2.7737
-2.60579
-2.58931
-2.63874
-2.66872
-2.68873
-2.70082
-2.69778
-2.70382
-2.70763
-2.69486
-2.71339
-4.28774
-4.64975
-4.89198
-4.88283
-4.65991
-4.2309
-3.5554
-3.06642
-2.8778
-2.83318
-2.84576
-2.85046
-2.84459
-2.83576
-2.82836
-2.83162
-2.82311
-2.81239
-2.8296
-3.97714
-4.3195
-4.58683
-4.57587
-4.39332
-4.03095
-3.58168
-3.25144
-3.09511
-3.04559
-3.03798
-3.02621
-3.0049
-2.98479
-2.97377
-2.9737
-2.95719
-2.95004
-2.96579
-3.66797
-3.74897
-3.83503
-3.95582
-3.92582
-3.76864
-3.57168
-3.40606
-3.29732
-3.24267
-3.21886
-3.19578
-3.16622
-3.1441
-3.12861
-3.12306
-3.10591
-3.10017
-3.11358
-3.72616
-3.75471
-3.80945
-3.86193
-3.85476
-3.78491
-3.6779
-3.56327
-3.47416
-3.41875
-3.38689
-3.35753
-3.32465
-3.3049
-3.2989
-3.2884
-3.26917
-3.2622
-3.27059
-3.86358
-3.85941
-3.88389
-3.90264
-3.88921
-3.8391
-3.7644
-3.68405
-3.61704
-3.57055
-3.53905
-3.50882
-3.47625
-3.46133
-3.46355
-3.46558
-3.44139
-3.43011
-3.42692
-3.99336
-3.96268
-3.9598
-3.95732
-3.93866
-3.9005
-3.84909
-3.79425
-3.745
-3.70712
-3.67819
-3.64932
-3.61851
-3.60853
-3.61294
-3.63704
-3.60504
-3.58514
-3.57141
-4.10617
-4.06481
-4.04649
-4.0317
-4.01029
-3.97954
-3.9414
-3.90063
-3.86269
-3.8318
-3.80626
-3.77957
-3.75171
-3.74427
-3.7568
-3.78628
-3.75455
-3.71699
-3.70172
-4.18984
-4.15376
-4.13069
-4.1112
-4.08981
-4.06393
-4.034
-4.0027
-3.97318
-3.94787
-3.92533
-3.90014
-3.87515
-3.86635
-3.88322
-3.9033
-3.89615
-3.83968
-3.82074
-4.26096
-4.23568
-4.21427
-4.19455
-4.17468
-4.15271
-4.12847
-4.10341
-4.07949
-4.05804
-4.03764
-4.01268
-3.98801
-3.97763
-3.99006
-4.00052
-4.0189
-3.95005
-3.91787
-4.33191
-4.31462
-4.29705
-4.27955
-4.26209
-4.24352
-4.22354
-4.20298
-4.18308
-4.16454
-4.14588
-4.12128
-4.09502
-4.08215
-4.08643
-4.09387
-4.10302
-4.02888
-3.98195
-4.40465
-4.39274
-4.37962
-4.36558
-4.35109
-4.33575
-4.31937
-4.30247
-4.28595
-4.2701
-4.25335
-4.23072
-4.20376
-4.18638
-4.18121
-4.18598
-4.15138
-4.06798
-4.01394
-4.48012
-4.4722
-4.46309
-4.45262
-4.44128
-4.4291
-4.41614
-4.40289
-4.3901
-4.37779
-4.36417
-4.34481
-4.31826
-4.2943
-4.2756
-4.26296
-4.18636
-4.09004
-4.035
-4.55905
-4.55417
-4.54823
-4.54092
-4.53262
-4.52361
-4.51427
-4.50528
-4.49744
-4.49064
-4.48278
-4.46897
-4.44484
-4.4123
-4.37339
-4.32627
-4.23491
-4.12937
-4.07262
-4.64189
-4.63923
-4.63565
-4.63094
-4.62536
-4.61948
-4.6141
-4.61012
-4.60869
-4.61013
-4.612
-4.60783
-4.58841
-4.54981
-4.4907
-4.40833
-4.31336
-4.202
-4.14169
-4.72888
-4.72777
-4.72595
-4.7233
-4.72013
-4.71735
-4.71611
-4.71753
-4.72367
-4.7365
-4.75369
-4.76517
-4.75266
-4.70774
-4.63475
-4.53225
-4.42692
-4.31109
-4.24896
-4.82016
-4.82025
-4.81988
-4.81901
-4.81803
-4.81828
-4.82105
-4.82775
-4.84238
-4.86946
-4.90722
-4.94024
-4.93923
-4.88866
-4.80181
-4.68169
-4.55366
-4.45144
-4.39834
-4.91602
-4.91726
-4.91834
-4.91916
-4.92027
-4.92322
-4.92917
-4.94011
-4.96229
-5.00326
-5.06204
-5.11695
-5.12817
-5.07119
-4.96705
-4.83828
-4.70461
-4.62199
-4.58622
-5.01671
-5.01924
-5.02181
-5.02426
-5.02722
-5.03201
-5.03951
-5.05201
-5.07671
-5.12278
-5.19208
-5.25837
-5.27653
-5.21979
-5.10229
-4.97457
-4.87687
-4.81378
-4.78926
-5.12208
-5.12593
-5.1299
-5.13382
-5.13816
-5.14376
-5.15113
-5.16188
-5.18154
-5.21828
-5.28079
-5.33875
-5.35713
-5.3087
-5.20623
-5.11257
-5.04231
-4.99743
-4.97824
-5.23149
-5.23651
-5.24166
-5.24679
-5.25213
-5.25808
-5.26475
-5.27266
-5.28473
-5.30703
-5.34264
-5.37851
-5.38726
-5.35311
-5.29183
-5.23146
-5.18612
-5.15737
-5.14449
-5.34421
-5.3502
-5.35638
-5.36257
-5.36882
-5.37526
-5.38168
-5.3879
-5.39467
-5.40422
-5.41686
-5.42717
-5.42467
-5.40478
-5.37417
-5.34418
-5.31935
-5.30199
-5.2936
-5.45983
-5.46679
-5.47403
-5.48133
-5.48859
-5.49571
-5.50232
-5.5079
-5.51216
-5.51532
-5.51657
-5.51392
-5.50609
-5.49348
-5.47791
-5.46181
-5.44736
-5.43676
-5.43113
-5.5783
-5.58634
-5.59479
-5.6034
-5.61194
-5.62006
-5.62717
-5.63245
-5.63515
-5.63473
-5.63056
-5.62283
-5.61294
-5.60213
-5.59104
-5.58071
-5.57201
-5.56572
-5.562
-5.69946
-5.70869
-5.71855
-5.72883
-5.73921
-5.74911
-5.75759
-5.76346
-5.76554
-5.76256
-5.75411
-5.74109
-5.72678
-5.71448
-5.70522
-5.69878
-5.69442
-5.6917
-5.68984
)
;

boundaryField
{
    leftWall
    {
        type            calculated;
        value           nonuniform List<scalar> 
50
(
979.22
921.522
859.467
792.996
723.139
651.162
577.934
504.867
389.497
234.738
109.374
53.2001
20.7344
6.66112
-0.499324
-2.49902
-2.59571
-2.41857
-2.23253
-2.06107
-2.11398
-2.27687
-2.37989
-2.3933
-2.34943
-2.34389
-2.42739
-2.56369
-2.71834
-2.87913
-3.03977
-3.19774
-3.35254
-3.50419
-3.65278
-3.79847
-3.94149
-4.08208
-4.22046
-4.3569
-4.49166
-4.62498
-4.75711
-4.88828
-5.0187
-5.14854
-5.27795
-5.40707
-5.53588
-5.66511
)
;
    }
    rightWall
    {
        type            calculated;
        value           nonuniform List<scalar> 
50
(
785.058
710.655
606.583
544.579
539.03
553.576
531.53
473.176
389.006
351.692
296.116
245.891
165.676
60.4863
13.1269
5.75033
1.4533
-0.902105
-1.48551
-1.80342
-1.93231
-2.21697
-2.53307
-2.56676
-2.62653
-2.71339
-2.8296
-2.96579
-3.11358
-3.27059
-3.42692
-3.57141
-3.70172
-3.82074
-3.91787
-3.98195
-4.01394
-4.035
-4.07262
-4.14169
-4.24896
-4.39834
-4.58622
-4.78926
-4.97824
-5.14449
-5.2936
-5.43113
-5.562
-5.68984
)
;
    }
    lowerWall
    {
        type            calculated;
        value           nonuniform List<scalar> 
62
(
1008.65
1003.38
994.692
985.391
979.623
976.851
973.855
968.181
959.208
947.253
933.485
919.753
907.658
896.618
885.1
876.933
874.527
876.818
882.522
890.505
893.866
891.627
885.5
856.076
795.751
733.737
669.999
605.302
542.5
481.574
424.063
319.029
295.669
400.193
439.139
742.954
704.773
684.552
689.895
674.873
651.846
636.627
633.048
759.468
730.705
719.123
687.871
651.438
599.595
558.639
555.645
599.26
625.772
627.42
634.367
609.768
557.461
495.155
403.481
415.421
599.18
803.525
)
;
    }
    atmosphere
    {
        type            calculated;
        value           nonuniform List<scalar> 
46
(
-5.72904
-5.72904
-5.72904
-5.72904
-5.72904
-5.72904
-5.72904
-5.72904
-5.72904
-5.72904
-5.72904
-5.72904
-5.72904
-5.72904
-5.72904
-5.72904
-5.72904
-5.72904
-5.72904
-5.72904
-5.72904
-5.72904
-5.72904
-5.72908
-5.73181
-5.73892
-5.74983
-5.76125
-5.77113
-5.78182
-5.79318
-5.80494
-5.8164
-5.8264
-5.83345
-5.83603
-5.8322
-5.82107
-5.80338
-5.78399
-5.76947
-5.7611
-5.75681
-5.7549
-5.75437
-5.75341
)
;
    }
    defaultFaces
    {
        type            empty;
    }
}


// ************************************************************************* //
