/*--------------------------------*- C++ -*----------------------------------*\
| =========                 |                                                 |
| \\      /  F ield         | OpenFOAM: The Open Source CFD Toolbox           |
|  \\    /   O peration     | Version:  2206                                  |
|   \\  /    A nd           | Website:  www.openfoam.com                      |
|    \\/     M anipulation  |                                                 |
\*---------------------------------------------------------------------------*/
FoamFile
{
    version     2.0;
    format      ascii;
    arch        "LSB;label=32;scalar=64";
    class       volScalarField;
    location    "0.85";
    object      p_rgh;
}
// * * * * * * * * * * * * * * * * * * * * * * * * * * * * * * * * * * * * * //

dimensions      [1 -1 -2 0 0 0 0];

internalField   nonuniform List<scalar> 
2268
(
1008.65
1003.38
994.692
985.391
979.623
976.851
973.855
968.181
959.208
947.253
933.485
919.753
907.658
896.618
885.1
876.933
874.527
876.818
882.522
890.505
893.866
891.627
885.5
1009.81
1003.41
992.98
982.163
976.475
975.731
974.205
968.861
959.897
947.695
933.583
919.547
907.252
896.393
884.238
875.907
868.747
869.019
878.152
886.495
889.474
888.985
884.021
1006.61
999.298
988.141
977.193
973.261
974.875
974.941
970.238
961.17
948.394
933.467
918.673
906.131
896.936
886.507
874.72
867.186
867.213
877.126
885.747
889.954
885.022
880.858
999.001
991.504
980.723
970.235
968.399
973.567
976.364
972.636
963.374
949.626
933.386
917.482
904.365
895.251
889.718
882.267
876.65
877.9
882.207
885.898
886.479
879.464
875.982
988.003
980.948
971.173
961.629
962.736
972.797
979.147
976.379
966.56
951.259
933.027
915.466
901.497
892.762
887.964
884.527
880.936
879.687
881.402
883.383
883.023
872.754
870.166
974.885
968.441
960.277
952.828
958.091
973.919
983.845
981.803
970.996
953.401
932.33
912.466
897.29
888.382
884.686
883.32
881.656
880.251
880.296
881.144
879.935
867.9
866.219
960.515
954.782
948.961
945.231
955.593
977.026
990.402
989.219
977.002
956.191
931.238
908.303
891.547
882.516
880.245
881.376
881.726
880.33
879.088
879.183
877.964
868.792
864.146
946.308
940.829
938.041
939.643
955.875
983.132
999.57
998.795
984.921
959.662
929.148
902.167
883.583
874.696
874.504
878.925
881.492
879.916
877.581
877.442
876.803
871.747
865.493
759.468
730.705
719.123
687.871
651.438
599.595
558.639
555.645
599.26
625.772
627.42
634.367
609.768
557.461
495.155
403.481
415.421
599.18
803.525
756.279
715.011
720.587
652.486
627.111
578.551
534.713
534.663
579.064
619.306
616.99
636.069
627.686
558.131
438.351
336.174
343.464
503.663
772.926
770.504
711.027
703.852
630.731
596.792
557.231
529.415
527.849
548.192
592.041
610.333
620.802
649.836
516.642
395.359
298.907
290.208
397.51
710.367
810.228
746.482
690.94
610.169
543.078
493.989
506.492
531.658
542.608
556.365
573.078
605.316
634.989
498.007
377.837
280.638
263.913
367.154
682.573
829.587
766.582
713.118
578.164
366.043
362.115
469.68
514.321
510.966
523.503
513.061
596.604
618.338
579.92
377.055
287.723
274.177
458.672
732.485
838.936
780.133
718.016
511.931
246.614
228.255
422.588
467.088
395.225
423.597
450.196
555.682
599.854
610.578
503.7
406.628
416.654
582.832
805.935
853.461
805.13
727.755
400.604
200.759
191.15
298.562
301.327
219.372
252.442
311.658
385.443
589.304
642.866
650.61
622.294
636.676
695.873
833.605
883.25
816.163
719.865
266.483
188.799
186.018
189.936
199.785
203.467
210.811
256.915
330.876
343.431
573.344
709.449
679.351
661.478
693.285
796.564
922.964
919.8
922.832
936.472
964.105
994.879
1014.75
1016.54
1000.33
964.835
922.587
887.904
866.129
858.047
862.833
874.781
881.806
879.281
874.922
875.422
875.154
867.505
843.58
872.725
881.766
881.427
885.724
923.114
986.204
1024.94
1029.32
1025.99
967.153
886.099
822.664
785.509
773.619
788.992
824.27
843.875
842.591
842.462
863.363
880.585
852.922
786.423
599.856
515.737
512.333
485.552
520.527
637.356
772.443
889.814
890
756.9
494.529
339.905
292.578
292.442
320.451
386.381
456.734
463.251
432.551
520.339
708.945
856.62
758.963
213.86
61.9962
71.5278
80.6492
162.15
453.348
675.553
728.177
730.064
433.408
169.4
118.054
99.1413
87.5039
98.0642
183.835
366.632
372.751
333.847
341.291
547.374
942.392
854.102
29.7237
14.8939
6.1923
3.59503
17.1632
79.9519
158.317
179.54
165.298
187.244
233.724
242.312
94.3117
51.6278
41.3339
335.342
607.372
631.855
476.075
430.184
900.638
1060.54
1061.46
10.0613
3.44968
-0.175428
-1.37782
-1.7074
-1.90676
-1.77767
-1.40195
-1.05017
-0.652133
16.5466
94.6244
112.594
72.0856
3.77027
6.01905
283.559
677.826
806.278
836.467
867.719
794.219
369.563
1.53787
-1.31962
-2.3929
-2.60592
-2.40679
-2.13549
-1.80745
-1.43452
-1.07438
-0.817172
-0.629694
-0.417483
-0.131244
0.0416721
0.530457
1.13235
2.36286
48.3732
664.728
909.937
529.571
136.142
114.389
-0.79509
-3.59481
-3.5418
-3.33447
-2.89964
-2.40623
-1.90999
-1.44597
-1.05715
-0.766511
-0.545432
-0.33372
-0.138363
0.068879
0.211179
0.358581
1.06769
3.71928
210.757
740.393
682.198
244.281
123.699
-0.629076
-4.0898
-4.10549
-3.71703
-3.071
-2.46644
-1.92205
-1.46061
-1.08438
-0.783733
-0.541906
-0.337419
-0.193039
-0.0992532
-0.0653762
-0.0573681
0.0463065
1.16526
31.0957
454.128
749.719
745.516
652.72
0.141654
-2.81126
-4.1918
-3.77328
-3.07166
-2.43948
-1.8656
-1.3979
-1.03354
-0.755706
-0.545542
-0.38177
-0.259674
-0.219009
-0.263757
-0.377314
-0.553723
-0.351632
2.85285
23.2538
324.082
676.95
712.781
0.256499
-0.854613
-3.49872
-3.44793
-2.85598
-2.27379
-1.69769
-1.26148
-0.937037
-0.701148
-0.526453
-0.399723
-0.323709
-0.314738
-0.393701
-0.576578
-0.814733
-0.823492
1.43466
60.3804
121.23
91.0201
82.4938
0.000299121
0.38491
-1.58309
-2.65749
-2.37803
-1.92029
-1.44527
-1.05804
-0.790385
-0.612492
-0.488986
-0.409413
-0.373616
-0.394977
-0.495721
-0.687332
-0.906507
-0.995476
-0.493919
38.7945
98.9684
120.844
81.5377
-0.0480576
0.761943
-0.132265
-1.40868
-1.67808
-1.41871
-1.08356
-0.798405
-0.613237
-0.500684
-0.432481
-0.398681
-0.398397
-0.438171
-0.537221
-0.695654
-0.860012
-0.926253
-0.821755
-0.526286
26.6175
124.726
132.989
-0.109535
0.172997
0.294442
-0.252255
-0.861462
-0.832756
-0.671545
-0.521198
-0.429462
-0.385226
-0.367109
-0.370068
-0.395595
-0.442334
-0.525906
-0.637652
-0.747942
-0.78649
-0.769095
-0.697419
-0.304181
12.2482
119.947
-0.0928959
0.0500575
0.227665
0.171301
-0.13988
-0.304774
-0.301695
-0.278312
-0.272483
-0.28347
-0.303697
-0.332559
-0.372577
-0.425427
-0.493949
-0.571956
-0.642738
-0.68065
-0.678338
-0.392613
-0.110041
0.794134
6.38455
0.0182924
0.172947
0.406324
0.380926
0.222168
0.0535835
-0.0434105
-0.104376
-0.156324
-0.204178
-0.249525
-0.295235
-0.344287
-0.399002
-0.459818
-0.521991
-0.575112
-0.608116
-0.631436
0.113822
2.8576
23.5801
38.0899
0.187239
0.313108
0.491587
0.496929
0.366302
0.217122
0.093936
-0.00243597
-0.0813343
-0.148132
-0.207258
-0.262616
-0.317072
-0.372754
-0.430254
-0.486907
-0.53687
-0.573152
-0.587348
0.0187493
3.69712
60.8469
67.5042
0.317913
0.391283
0.486894
0.483158
0.387444
0.263324
0.14731
0.0471797
-0.0381187
-0.111447
-0.176447
-0.236412
-0.293753
-0.350235
-0.406593
-0.461774
-0.513532
-0.557697
-0.568965
-0.438199
3.58077
66.3321
70.3001
0.359586
0.392473
0.436585
0.42262
0.350791
0.254556
0.15659
0.0655302
-0.0162008
-0.089091
-0.15512
-0.216463
-0.274898
-0.331813
-0.387974
-0.443074
-0.496814
-0.546421
-0.571055
-0.620358
0.051182
44.5487
73.1438
0.348472
0.358145
0.375406
0.356093
0.300694
0.226442
0.1462
0.0670923
-0.00744039
-0.0765321
-0.140836
-0.201535
-0.259806
-0.316686
-0.372963
-0.428682
-0.484191
-0.537715
-0.589092
-0.635615
-0.666794
32.3486
75.8295
0.319022
0.31902
0.320408
0.298244
0.253575
0.194582
0.128459
0.0604666
-0.00619376
-0.0701479
-0.131281
-0.190102
-0.24735
-0.303829
-0.360376
-0.417467
-0.475606
-0.535092
-0.592579
-0.61802
-0.672919
23.1819
76.5235
0.283422
0.282006
0.274158
0.250903
0.213165
0.16455
0.109129
0.0505055
-0.0087498
-0.0672409
-0.124518
-0.18072
-0.236333
-0.292082
-0.348919
-0.407951
-0.470176
-0.53854
-0.6109
-0.694502
-0.809313
18.4824
58.6297
0.247976
0.24645
0.234605
0.211919
0.17916
0.137985
0.0907459
0.0398479
-0.0127718
-0.0659078
-0.119032
-0.172122
-0.225553
-0.280062
-0.33677
-0.39741
-0.464026
-0.541714
-0.633931
-0.762801
-0.957067
17.6912
45.6337
0.215199
0.213238
0.20042
0.179295
0.150569
0.115111
0.0743376
0.0298782
-0.0168451
-0.0648682
-0.113703
-0.163281
-0.21393
-0.266405
-0.321959
-0.382709
-0.451785
-0.535541
-0.642997
-0.803022
-1.06792
11.0057
37.483
0.185591
0.183203
0.17083
0.151699
0.126476
0.0956804
0.0602317
0.0212685
-0.0201683
-0.0633282
-0.107795
-0.153492
-0.200704
-0.250135
-0.303019
-0.361464
-0.428924
-0.511929
-0.620215
-0.784191
-1.05164
-0.887225
12.9695
0.15914
0.156546
0.14521
0.128199
0.106116
0.0793053
0.0484116
0.0142636
-0.0223646
-0.0608846
-0.10094
-0.142439
-0.185589
-0.230948
-0.27952
-0.332989
-0.394047
-0.467755
-0.559623
-0.687806
-0.873778
-1.16854
-1.34193
0.135749
0.133166
0.123058
0.10812
0.088879
0.0655737
0.0386876
0.00884744
-0.0233547
-0.0574429
-0.0930966
-0.130187
-0.168812
-0.209314
-0.252323
-0.298866
-0.350386
-0.409518
-0.477726
-0.561382
-0.658662
-0.8035
-0.921728
0.115247
0.112827
0.103954
0.0909547
0.0742835
0.0541044
0.0307995
0.00485922
-0.0232493
-0.0531262
-0.0844686
-0.117102
-0.151004
-0.186301
-0.223264
-0.262315
-0.303979
-0.349072
-0.397439
-0.450822
-0.502868
-0.564608
-0.62253
0.0974195
0.0952494
0.0875389
0.0763102
0.0619491
0.0445668
0.0244774
0.0020757
-0.0222582
-0.0481783
-0.0753936
-0.103692
-0.132953
-0.163141
-0.194281
-0.226429
-0.259679
-0.294098
-0.329315
-0.365846
-0.400362
-0.43427
-0.463535
0.0820323
0.0801494
0.0735021
0.063866
0.0515676
0.0366812
0.0194723
0.000266602
-0.020618
-0.042877
-0.0662338
-0.0904554
-0.115363
-0.140821
-0.166723
-0.19296
-0.21945
-0.246047
-0.272425
-0.298513
-0.322889
-0.344906
-0.362101
0.0688414
0.0672494
0.06156
0.0533437
0.0428766
0.0302078
0.0155653
-0.000776236
-0.0185449
-0.0374709
-0.0572966
-0.0777851
-0.0987293
-0.119946
-0.141265
-0.16251
-0.183512
-0.204049
-0.223816
-0.242499
-0.259379
-0.273972
-0.285084
0.0575947
0.0562753
0.0514438
0.044486
0.0356383
0.0249319
0.0125638
-0.00123051
-0.016215
-0.0321504
-0.0488007
-0.0659377
-0.0833472
-0.100828
-0.118186
-0.135222
-0.151736
-0.167501
-0.182266
-0.195775
-0.207682
-0.217845
-0.225802
0.0480361
0.0469594
0.0428944
0.0370469
0.0296281
0.0206536
0.0102931
-0.00124919
-0.0137674
-0.0270494
-0.0408826
-0.0550547
-0.0693592
-0.0835967
-0.0975737
-0.111098
-0.123986
-0.136049
-0.147119
-0.157057
-0.165721
-0.173101
-0.179019
0.0399105
0.0390458
0.0356629
0.0307911
0.0246319
0.0171831
0.00859038
-0.000968726
-0.0113153
-0.0222621
-0.0336201
-0.0451982
-0.0568065
-0.0682611
-0.0793849
-0.0900099
-0.0999832
-0.109169
-0.11746
-0.124795
-0.131136
-0.136534
-0.140982
0.0329718
0.0322962
0.0295155
0.025498
0.020449
0.0143426
0.00730463
-0.000511946
-0.00895343
-0.0178558
-0.0270535
-0.036379
-0.045665
-0.0547494
-0.0634786
-0.0717121
-0.0793291
-0.0862347
-0.0923677
-0.0977144
-0.102301
-0.106231
-0.109591
0.026992
0.0264935
0.0242382
0.0209682
0.0168976
0.0119713
0.00630016
1.2966e-05
-0.00676048
-0.0138782
-0.0211983
-0.0285772
-0.0358719
-0.0429447
-0.0496665
-0.0559231
-0.0616215
-0.0666981
-0.0711253
-0.0749227
-0.0781548
-0.0809501
-0.0834343
0.0217679
0.0214445
0.0196418
0.0170267
0.0138186
0.00992923
0.00546009
0.00051492
-0.00479885
-0.0103609
-0.0160529
-0.0217544
-0.0273467
-0.0327158
-0.0377566
-0.042378
-0.0465105
-0.0501134
-0.0531815
-0.0557532
-0.0579113
-0.0597956
-0.0615583
0.0171213
0.0169766
0.0155597
0.0135219
0.0110744
0.00809628
0.00468481
0.000917391
-0.0031191
-0.00732605
-0.0116084
-0.0158681
-0.0200091
-0.0239402
-0.0275781
-0.0308521
-0.0337113
-0.036131
-0.0381186
-0.0397217
-0.0410318
-0.0421978
-0.0433973
0.0129122
0.0129504
0.0118553
0.010332
0.00855694
0.00638078
0.00390169
0.00116861
-0.00174972
-0.00477691
-0.00784071
-0.0108643
-0.0137736
-0.0164985
-0.0189756
-0.0211525
-0.0229931
-0.0244831
-0.0256365
-0.026503
-0.0271752
-0.0278056
-0.028591
0.00898181
0.00919184
0.00837867
0.00732561
0.00614521
0.00467585
0.00301998
0.00119526
-0.000743815
-0.00274459
-0.00475649
-0.00672348
-0.00859309
-0.0103156
-0.0118463
-0.0131491
-0.0142002
-0.0149924
-0.015541
-0.0158902
-0.016123
-0.0163803
-0.0168634
0.00536716
0.00569472
0.00510089
0.00448864
0.00383893
0.00300273
0.00207795
0.0010551
-2.42572e-05
-0.00113233
-0.00223878
-0.00330904
-0.00431203
-0.00521755
-0.00599901
-0.0066353
-0.00711246
-0.00742676
-0.0075886
-0.00762754
-0.00760012
-0.00760815
-0.00781192
0.0013307
0.00172011
0.00152076
0.0013323
0.00113448
0.00086702
0.000598008
0.000294265
-1.49774e-05
-0.000326503
-0.000627779
-0.000906741
-0.00115345
-0.00135774
-0.00151133
-0.00160791
-0.00164411
-0.00162078
-0.00154439
-0.00142901
-0.00130015
-0.0012031
-0.00122388
789.886
766.526
871.05
864.226
685.213
675.267
825.658
735.916
650.316
687.887
787.911
360.94
791.741
721.685
314.057
220.77
626.865
170.516
139.155
187.049
115.401
103.231
132.133
161.717
98.1913
101.234
119.692
201.978
104.636
103.524
131.891
152.914
514.345
353.542
113.694
24.5175
514.039
116.65
51.3644
54.808
60.5227
52.0413
51.716
79.7825
68.678
61.0017
109.777
75.3824
132.265
128.571
125.993
3.74829
137.697
134.658
78.1302
-0.767996
58.0411
58.4599
-0.282438
-0.656314
4.18159
-0.224285
-0.252491
-0.621158
67.5391
8.6221
-0.412091
-0.771464
69.699
32.8166
-0.698324
-0.954418
59.308
-1.22879
-0.832939
-0.920422
23.5692
-0.999353
-0.739601
-0.741143
11.4684
-0.880475
-0.675288
-0.549687
2.42908
-0.90198
-0.746782
-0.561321
-0.909286
-0.960713
-0.831156
-0.608641
0.580371
-1.03891
-0.880455
-0.65718
5.50292
-0.527483
-0.916466
-0.67815
-1.23575
-0.890093
-0.74942
-0.610664
-0.911632
-0.801195
-0.64155
-0.523506
-0.644017
-0.598962
-0.516303
-0.448638
-0.482426
-0.466396
-0.424428
-0.385192
-0.373747
-0.368987
-0.349849
-0.328263
-0.293702
-0.294972
-0.287728
-0.276873
-0.232812
-0.23644
-0.23515
-0.230862
-0.184679
-0.189018
-0.190694
-0.190237
-0.145576
-0.149964
-0.153005
-0.15469
-0.113298
-0.117393
-0.121008
-0.124017
-0.0863726
-0.0900947
-0.0940334
-0.0981319
-0.0638716
-0.0673316
-0.0716466
-0.0768606
-0.0452502
-0.0486085
-0.0534143
-0.0597405
-0.0301158
-0.0334659
-0.0387854
-0.0461193
-0.0180869
-0.0213614
-0.0271585
-0.0354629
-0.00863103
-0.0117133
-0.0181288
-0.027531
-0.00163791
-0.00461687
-0.0117209
-0.0222246
857.354
832.2
682.193
338.129
260.37
184.021
185.855
194.573
197.412
201.117
226.892
285.683
302.355
347.159
538.236
665.448
732.194
731.634
726.61
479.212
506.829
543.207
471.348
422.585
293.347
186.291
189.244
190.985
198.378
280.929
288.492
307.037
625.954
752.867
762.623
740.517
684.252
706.442
302.146
314.117
428.177
495.811
444.076
431.554
386.362
194.648
190.234
237.413
306.249
326.472
629.066
747.749
743.742
750.459
713.178
720.258
826.699
261.824
276.097
277.837
481.24
479.991
425.267
408.327
448.018
244.582
243.206
406.479
749.821
776.517
764.91
740.396
377.186
259.874
561.898
861.216
399.79
467.515
271.922
191.24
415.528
487.385
245.731
211.607
237.438
514.559
838.162
815.891
792.241
750.044
255.558
27.6628
29.3898
78.5714
407.948
380.784
721.554
807.3
161.212
127.549
107.266
132.185
207.104
272.318
542.392
841.678
838.102
709.632
207.263
8.37959
5.72044
5.02172
19.8071
65.1995
507.593
522.33
837.785
597.188
106.077
76.2229
84.0083
347.217
422.081
422.051
366.395
149.838
9.78109
2.2518
1.78238
-0.669782
-1.25459
6.69236
81.4485
90.8303
151.472
861.548
839.742
112.662
35.5365
29.2921
57.3578
78.4568
46.0689
2.04338
2.29224
3.61382
5.02265
4.37283
1.60212
0.507167
3.58687
107.446
18.9259
17.7563
635.564
877.511
219.616
8.25473
5.51841
2.01217
1.36297
0.661653
0.733948
3.02604
7.33573
9.50792
8.64615
5.70268
1.55286
0.303563
112.381
15.3101
14.922
97.6734
941.338
145.993
4.21157
0.731514
0.700354
0.38366
-0.233025
3.02969
4.6681
6.05616
7.43279
7.94587
6.61703
2.43661
0.295042
118.642
7.7609
4.57881
33.6251
1008.66
260.219
-0.0468992
0.249271
-0.135036
-0.486804
-1.17856
-0.370662
3.10235
4.26453
4.93387
6.4534
5.14342
1.73491
0.188388
125.615
-1.80025
-1.8647
51.2017
702.311
284.522
-0.152089
0.0317611
-0.328539
-0.548024
-1.05473
-1.24771
-1.40104
-1.04843
-0.644169
3.16574
-0.124331
0.0630355
0.0249185
131.485
-2.54017
-2.57864
25.5756
77.7943
138.251
-0.769858
-0.0599925
-0.0742174
-0.186246
-0.501346
-0.737402
-0.815702
-0.68258
-0.465067
-0.295064
-0.165905
-0.147519
-0.0950425
133.131
-1.78288
1.83164
-0.6803
-3.49606
-4.89672
-0.791498
0.019743
0.268312
0.230232
0.0473584
-0.115054
-0.233254
-0.273841
-0.265333
-0.199604
-0.161732
-0.169404
-0.156936
55.1012
-1.46824
-2.42596
-3.28181
-3.93487
-2.52995
-0.391034
0.203348
0.473524
0.447342
0.311009
0.162037
0.0399064
-0.0636047
-0.135793
-0.137994
-0.137481
-0.156368
-0.174883
2.82018
-1.40193
-2.10096
-2.5578
-2.35343
-1.34936
-0.287409
0.19712
0.438119
0.433933
0.317338
0.174923
0.0792905
-0.0207509
-0.0767154
-0.0898054
-0.0975093
-0.114084
-0.122223
-0.131303
-1.45891
-1.94792
-2.20313
-1.95259
-1.36255
-0.710915
-0.160916
0.172106
0.255881
0.20826
0.118501
0.0488155
-0.00666863
-0.0442383
-0.050566
-0.043807
-0.0237485
-0.0559964
-0.0600988
-1.58978
-1.97815
-2.19381
-2.12169
-1.71613
-0.965855
-0.120822
-0.0397647
0.0574101
0.0738632
0.0303717
-0.00204609
-0.0258025
-0.0377583
0.416788
0.375086
0.019496
0.119539
-0.0111287
-1.34977
-1.8457
-2.08797
-2.07418
-1.64843
0.298312
1.10672
0.079388
-0.0847718
-0.0447064
-0.0462402
-0.0510528
-0.0566312
0.138264
1.1493
0.61497
0.00815886
0.213074
0.00569075
-0.531241
-0.0802044
0.21344
-0.271411
0.316401
0.875015
1.32428
0.216125
-0.180776
-0.131424
-0.112562
-0.104695
-0.0918342
0.927308
1.18257
0.191121
-0.00117963
0.21149
-0.016323
0.210572
1.4173
1.33124
1.21045
1.23315
1.34399
0.355998
-0.3686
-0.259712
-0.194827
-0.167642
-0.154078
-0.128022
1.17706
1.20642
-0.0381159
-0.0252441
0.197066
-0.0570441
-0.561925
-0.554116
-0.502724
-0.261348
-0.30725
-0.622357
-0.515344
-0.400717
-0.311503
-0.24237
-0.209901
-0.189644
-0.16134
1.15629
1.09717
-0.0830926
-0.0637991
0.168698
-0.0965298
-0.574231
-0.571664
-0.59614
-0.614893
-0.601462
-0.551349
-0.476657
-0.396305
-0.328072
-0.26792
-0.2363
-0.217402
-0.187828
1.14059
0.0705845
-0.133458
-0.108665
-0.0372527
-0.128085
-0.578283
-0.549729
-0.546854
-0.544383
-0.525717
-0.48756
-0.436146
-0.381307
-0.321095
-0.278682
-0.249692
-0.235167
-0.204908
0.956551
-0.0235744
-0.177405
-0.159537
-0.159756
-0.146956
-0.56802
-0.526675
-0.508352
-0.493561
-0.472151
-0.441406
-0.403268
-0.362498
-0.308945
-0.277641
-0.258088
-0.241183
-0.213066
0.466844
0.179274
-0.189761
1.2074
0.172813
-0.147381
-0.526504
-0.490428
-0.46736
-0.447866
-0.426477
-0.400596
-0.370673
-0.339352
-0.29656
-0.267944
-0.258519
-0.236794
-0.21165
0.183207
0.206661
-0.138963
3.25921
1.37283
-0.120124
-0.472439
-0.447159
-0.425741
-0.406026
-0.386153
-0.364184
-0.339934
-0.314884
-0.28881
-0.268073
-0.249116
-0.224145
-0.191363
0.128089
0.0882673
0.455043
3.43187
2.31144
-0.057902
-0.418189
-0.400903
-0.383327
-0.365833
-0.348367
-0.329781
-0.30979
-0.289234
-0.26936
-0.250823
-0.232159
-0.207555
0.0310976
0.172048
-0.0743586
2.59254
3.60666
2.833
0.05139
-0.365739
-0.353824
-0.340709
-0.326666
-0.312179
-0.296811
-0.280422
-0.263541
-0.247036
-0.231181
-0.214434
-0.1918
-0.125312
0.180934
-0.134499
3.61575
3.80492
3.06347
0.196858
-0.316011
-0.308093
-0.298977
-0.288509
-0.277171
-0.264992
-0.252031
-0.238784
-0.225996
-0.213681
-0.200054
-0.180658
-0.15365
-0.11659
-0.104236
2.07249
4.01657
2.88322
0.318373
-0.269746
-0.264868
-0.258924
-0.251621
-0.243319
-0.234303
-0.224965
-0.215975
-0.208135
-0.201338
-0.19339
-0.177235
-0.137956
-0.115466
-0.0763444
0.69794
4.15564
2.57897
0.353224
-0.22739
-0.224734
-0.221156
-0.216439
-0.210867
-0.204987
-0.199604
-0.195625
-0.194197
-0.195634
-0.150637
-0.0389791
-0.0882162
-0.127324
-0.0685122
0.716347
4.17167
2.50441
0.357227
-0.189186
-0.18808
-0.186258
-0.183612
-0.180439
-0.177653
-0.17642
-0.177837
-0.183982
-0.187276
0.00656886
-0.00229015
-0.0186375
-0.155224
-0.0868389
1.97552
4.14135
2.30577
0.32427
-0.155274
-0.15536
-0.154997
-0.154126
-0.153147
-0.153396
-0.156159
-0.162852
-0.177495
-0.100684
-0.0129903
-0.046007
-0.112778
-0.203542
-0.00198148
3.9891
4.17414
1.41537
0.269833
-0.125941
-0.127183
-0.128256
-0.129075
-0.130187
-0.133138
-0.138927
-0.149503
-0.172206
-0.1998
-0.0366879
-0.0913731
-0.150185
-0.249318
-0.140055
3.33909
3.10875
0.285243
0.203915
-0.101435
-0.103966
-0.10653
-0.108988
-0.11194
-0.116731
-0.123614
-0.135982
-0.161308
-0.2075
-0.107767
-0.101678
-0.141389
-0.266637
0.188715
0.998444
0.215126
0.101491
0.126016
-0.0816132
-0.0854639
-0.0894339
-0.0933528
-0.0976872
-0.103261
-0.110276
-0.121296
-0.141066
-0.177804
-0.195264
-0.0519545
-0.0759239
-0.107813
-0.131032
-0.0721045
-0.00184236
0.0430416
0.0622258
-0.0658285
-0.0708407
-0.0759965
-0.0811204
-0.0864542
-0.0923986
-0.0990813
-0.106994
-0.119066
-0.141365
-0.172674
-0.0913849
-0.0781386
-0.167584
-0.126166
-0.0657981
-0.0204551
0.00829899
0.0211726
-0.0533464
-0.0593404
-0.0655206
-0.0717078
-0.0779619
-0.0843987
-0.0908246
-0.0970439
-0.103811
-0.113361
-0.126003
-0.136306
-0.133807
-0.113924
-0.0833121
-0.0533234
-0.0284892
-0.0111337
-0.00274094
-0.043781
-0.0507402
-0.0579741
-0.0652741
-0.0725368
-0.0796557
-0.0862673
-0.0918449
-0.096105
-0.0992663
-0.100511
-0.097866
-0.0897754
-0.0765161
-0.0618524
-0.045756
-0.0313059
-0.0207033
-0.0150759
-0.0370539
-0.0450922
-0.0535387
-0.0621548
-0.0706939
-0.0788143
-0.0859181
-0.0911973
-0.0939066
-0.0934819
-0.0893153
-0.0815822
-0.0714645
-0.0603971
-0.049791
-0.0394602
-0.0307583
-0.024467
-0.0207564
-0.033018
-0.0422497
-0.05211
-0.0623857
-0.0727641
-0.0826678
-0.0911515
-0.0970213
-0.0990935
-0.0961218
-0.0876626
-0.0746377
-0.0603378
-0.0480396
-0.0387808
-0.0323393
-0.0279778
-0.0252592
-0.0233971
)
;

boundaryField
{
    leftWall
    {
        type            fixedFluxPressure;
        gradient        uniform 0;
        value           nonuniform List<scalar> 
50
(
1008.65
1009.81
1006.61
999.001
988.003
974.885
960.515
946.308
922.964
872.725
599.856
213.86
29.7237
10.0613
1.53787
-0.79509
-0.629076
0.141654
0.256499
0.000299121
-0.0480576
-0.109535
-0.0928959
0.0182924
0.187239
0.317913
0.359586
0.348472
0.319022
0.283422
0.247976
0.215199
0.185591
0.15914
0.135749
0.115247
0.0974195
0.0820323
0.0688414
0.0575947
0.0480361
0.0399105
0.0329718
0.026992
0.0217679
0.0171213
0.0129122
0.00898181
0.00536716
0.0013307
)
;
    }
    rightWall
    {
        type            fixedFluxPressure;
        gradient        uniform 0;
        value           nonuniform List<scalar> 
50
(
803.525
772.926
710.367
682.573
732.485
805.935
833.605
796.564
726.61
706.442
826.699
861.216
407.948
65.1995
81.4485
107.446
112.381
118.642
125.615
131.485
133.131
55.1012
2.82018
-0.131303
-0.0600988
-0.0111287
0.00569075
-0.016323
-0.0570441
-0.0965298
-0.128085
-0.146956
-0.147381
-0.120124
-0.057902
0.05139
0.196858
0.318373
0.353224
0.357227
0.32427
0.269833
0.203915
0.126016
0.0622258
0.0211726
-0.00274094
-0.0150759
-0.0207564
-0.0233971
)
;
    }
    lowerWall
    {
        type            fixedFluxPressure;
        gradient        uniform 0;
        value           nonuniform List<scalar> 
62
(
1008.65
1003.38
994.692
985.391
979.623
976.851
973.855
968.181
959.208
947.253
933.485
919.753
907.658
896.618
885.1
876.933
874.527
876.818
882.522
890.505
893.866
891.627
885.5
885.5
884.021
880.858
875.982
870.166
866.219
864.146
865.493
789.886
766.526
871.05
864.226
759.468
756.279
770.504
810.228
829.587
838.936
853.461
883.25
759.468
730.705
719.123
687.871
651.438
599.595
558.639
555.645
599.26
625.772
627.42
634.367
609.768
557.461
495.155
403.481
415.421
599.18
803.525
)
;
    }
    atmosphere
    {
        type            totalPressure;
        rho             rho;
        psi             none;
        gamma           1;
        p0              uniform 0;
        value           nonuniform List<scalar> 
46
(
0
0
0
0
0
0
0
0
0
0
0
0
0
0
0
0
0
0
0
0
0
0
0
-3.84491e-05
-0.00277355
-0.00988419
-0.0207852
-0.032209
-0.0420887
-0.0527814
-0.0641437
-0.0758991
-0.0873633
-0.0973551
-0.104413
-0.106993
-0.103157
-0.0920322
-0.0743394
-0.0549492
-0.0404345
-0.0320571
-0.0277683
-0.0258588
-0.0253256
-0.0243723
)
;
    }
    defaultFaces
    {
        type            empty;
    }
}


// ************************************************************************* //
