/*--------------------------------*- C++ -*----------------------------------*\
| =========                 |                                                 |
| \\      /  F ield         | OpenFOAM: The Open Source CFD Toolbox           |
|  \\    /   O peration     | Version:  2206                                  |
|   \\  /    A nd           | Website:  www.openfoam.com                      |
|    \\/     M anipulation  |                                                 |
\*---------------------------------------------------------------------------*/
FoamFile
{
    version     2.0;
    format      ascii;
    arch        "LSB;label=32;scalar=64";
    class       surfaceScalarField;
    location    "0.85";
    object      phi;
}
// * * * * * * * * * * * * * * * * * * * * * * * * * * * * * * * * * * * * * //

dimensions      [0 3 -1 0 0 0 0];

oriented        oriented;

internalField   nonuniform List<scalar> 
4432
(
-4.37982e-06
4.37982e-06
-1.02474e-05
5.86758e-06
-1.70934e-05
6.84598e-06
-2.35041e-05
6.41068e-06
-2.67808e-05
3.27675e-06
-2.63772e-05
-4.03579e-07
-2.47426e-05
-1.63459e-06
-2.36172e-05
-1.12544e-06
-2.29442e-05
-6.7299e-07
-2.25488e-05
-3.95452e-07
-2.24111e-05
-1.37691e-07
-2.2216e-05
-1.95115e-07
-2.13572e-05
-8.58804e-07
-1.98925e-05
-1.46468e-06
-2.03414e-05
4.48907e-07
-2.47103e-05
4.36897e-06
-3.03305e-05
5.62012e-06
-3.0412e-05
8.15809e-08
-2.43896e-05
-6.02243e-06
-1.62901e-05
-8.09954e-06
-8.59013e-06
-7.69995e-06
-2.30383e-06
-6.2863e-06
-2.30383e-06
-9.13621e-06
1.3516e-05
-1.77559e-05
1.44872e-05
-2.47021e-05
1.37922e-05
-2.863e-05
1.03386e-05
-2.90165e-05
3.66334e-06
-2.73165e-05
-2.10366e-06
-2.53084e-05
-3.64267e-06
-2.40074e-05
-2.42647e-06
-2.34774e-05
-1.203e-06
-2.32392e-05
-6.33615e-07
-2.31468e-05
-2.30106e-07
-2.34015e-05
5.96062e-08
-2.45105e-05
2.50217e-07
-2.68723e-05
8.97093e-07
-2.99143e-05
3.49097e-06
-3.14419e-05
5.89654e-06
-2.84041e-05
2.58233e-06
-2.17045e-05
-6.61807e-06
-1.46394e-05
-1.30875e-05
-8.64143e-06
-1.40975e-05
-3.05942e-06
-1.3282e-05
3.55064e-07
-9.7008e-06
-1.94876e-06
-1.00125e-05
2.35285e-05
-1.84305e-05
2.29052e-05
-2.48568e-05
2.02185e-05
-2.89178e-05
1.43996e-05
-3.00381e-05
4.78359e-06
-2.8547e-05
-3.59473e-06
-2.62813e-05
-5.90841e-06
-2.46415e-05
-4.06625e-06
-2.35654e-05
-2.27907e-06
-2.25868e-05
-1.61224e-06
-2.15407e-05
-1.27615e-06
-2.07435e-05
-7.37649e-07
-2.0783e-05
2.89782e-07
-2.19287e-05
2.04278e-06
-2.27388e-05
4.30109e-06
-2.08714e-05
4.02913e-06
-1.58495e-05
-2.43963e-06
-1.05974e-05
-1.18702e-05
-6.70288e-06
-1.6982e-05
-3.03252e-06
-1.77679e-05
1.07695e-06
-1.73914e-05
3.31708e-06
-1.19409e-05
1.36832e-06
-9.30552e-06
3.28341e-05
-1.71766e-05
3.07763e-05
-2.36344e-05
2.66763e-05
-2.81738e-05
1.89391e-05
-2.97726e-05
6.3823e-06
-2.87851e-05
-4.58215e-06
-2.70978e-05
-7.59575e-06
-2.57113e-05
-5.45269e-06
-2.4553e-05
-3.43744e-06
-2.33673e-05
-2.79791e-06
-2.19348e-05
-2.70868e-06
-2.02919e-05
-2.38054e-06
-1.86147e-05
-1.38741e-06
-1.69399e-05
3.68003e-07
-1.44899e-05
1.85103e-06
-1.08031e-05
3.42392e-07
-7.22022e-06
-6.02251e-06
-5.42334e-06
-1.3667e-05
-4.53678e-06
-1.78686e-05
-2.35409e-06
-1.99506e-05
1.35771e-06
-2.11032e-05
3.83811e-06
-1.44214e-05
5.20643e-06
-8.12404e-06
4.09581e-05
-1.5278e-05
3.79302e-05
-2.12857e-05
3.2684e-05
-2.54924e-05
2.31458e-05
-2.72994e-05
8.1893e-06
-2.73863e-05
-4.49526e-06
-2.71761e-05
-7.80588e-06
-2.67357e-05
-5.89311e-06
-2.57949e-05
-4.37826e-06
-2.45148e-05
-4.07801e-06
-2.29576e-05
-4.26588e-06
-2.10947e-05
-4.24339e-06
-1.88666e-05
-3.61551e-06
-1.60473e-05
-2.45137e-06
-1.24371e-05
-1.75919e-06
-8.59796e-06
-3.49669e-06
-6.20025e-06
-8.42023e-06
-5.84559e-06
-1.40217e-05
-5.85248e-06
-1.78617e-05
-4.27255e-06
-2.15305e-05
-1.2062e-06
-2.41696e-05
2.07877e-06
-1.77063e-05
7.2852e-06
-6.67579e-06
4.76339e-05
-1.27271e-05
4.39815e-05
-1.76386e-05
3.75956e-05
-2.102e-05
2.65271e-05
-2.30881e-05
1.02574e-05
-2.46951e-05
-2.88818e-06
-2.66446e-05
-5.85645e-06
-2.76424e-05
-4.8953e-06
-2.71017e-05
-4.91897e-06
-2.56669e-05
-5.51275e-06
-2.38378e-05
-6.09502e-06
-2.17873e-05
-6.29385e-06
-1.95069e-05
-5.89597e-06
-1.68401e-05
-5.1181e-06
-1.36665e-05
-4.93286e-06
-1.04556e-05
-6.70763e-06
-8.28465e-06
-1.05911e-05
-7.4608e-06
-1.48455e-05
-7.01651e-06
-1.8306e-05
-6.31871e-06
-2.22283e-05
-4.90371e-06
-2.55846e-05
-1.59797e-06
-2.10121e-05
5.68722e-06
-5.0226e-06
5.26565e-05
-9.90078e-06
4.88597e-05
-1.36166e-05
4.13113e-05
-1.58794e-05
2.87899e-05
-1.79486e-05
1.23266e-05
-2.14589e-05
6.22089e-07
-2.61397e-05
-1.17558e-06
-2.86505e-05
-2.38452e-06
-2.84949e-05
-5.0746e-06
-2.68432e-05
-7.16448e-06
-2.45923e-05
-8.34588e-06
-2.21708e-05
-8.71534e-06
-1.97057e-05
-8.36112e-06
-1.7144e-05
-7.6797e-06
-1.43497e-05
-7.72718e-06
-1.1444e-05
-9.61331e-06
-9.01096e-06
-1.30242e-05
-7.50716e-06
-1.63493e-05
-6.91523e-06
-1.88979e-05
-7.30732e-06
-2.18363e-05
-7.91804e-06
-2.49739e-05
-6.48089e-06
-2.24492e-05
-7.9367e-07
-3.30089e-06
5.59574e-05
-6.55599e-06
5.21148e-05
-8.04776e-06
4.28031e-05
-7.95862e-06
2.87008e-05
-1.0122e-05
1.44901e-05
-1.75812e-05
8.08128e-06
-2.56498e-05
6.89293e-06
-2.95676e-05
1.53335e-06
-2.97068e-05
-4.9354e-06
-2.76685e-05
-9.20284e-06
-2.47153e-05
-1.12991e-05
-2.16944e-05
-1.17362e-05
-1.89027e-05
-1.11529e-05
-1.62989e-05
-1.02835e-05
-1.36159e-05
-1.04101e-05
-1.06912e-05
-1.25381e-05
-8.00472e-06
-1.57107e-05
-6.34432e-06
-1.80097e-05
-5.9766e-06
-1.92656e-05
-6.65096e-06
-2.11619e-05
-7.80659e-06
-2.38182e-05
-7.37298e-06
-2.28828e-05
-8.16666e-06
1.72965e-05
-1.72965e-05
1.59542e-06
1.5701e-05
-1.09143e-05
1.25097e-05
1.2131e-05
-2.30452e-05
4.23512e-05
-3.02202e-05
5.78196e-05
-1.54685e-05
5.50178e-05
2.80182e-06
3.64985e-05
1.85193e-05
1.29404e-05
2.35581e-05
-9.60659e-06
2.2547e-05
-1.84703e-05
8.86371e-06
-1.10779e-05
-7.39243e-06
-6.21354e-06
-4.86432e-06
-2.31415e-05
1.6928e-05
-5.29285e-05
2.9787e-05
-7.84307e-05
2.55022e-05
-8.31282e-05
4.69756e-06
-5.22349e-05
-3.08933e-05
-5.22349e-05
-9.83277e-07
-1.63132e-05
-2.07248e-05
3.54426e-05
2.484e-06
-1.06992e-05
4.21376e-05
-6.26989e-05
6.00906e-05
-4.81731e-05
6.47377e-05
-2.01156e-05
6.32652e-05
4.27435e-06
5.74283e-05
2.43562e-05
4.44334e-05
3.6553e-05
2.54868e-05
4.14936e-05
-5.24843e-07
3.48753e-05
-2.57406e-05
1.78233e-05
-3.78821e-05
7.2772e-06
-5.98217e-05
3.88675e-05
-8.75349e-05
5.75003e-05
-9.85307e-05
3.64979e-05
-8.10916e-05
-1.27415e-05
-3.95711e-05
-7.24138e-05
-9.1806e-05
-1.36205e-05
-2.6927e-06
-1.18145e-05
3.36366e-05
2.82373e-05
-5.0751e-05
4.98416e-05
-8.43032e-05
5.62615e-05
-5.4593e-05
5.35939e-05
-1.74481e-05
5.01078e-05
7.76047e-06
5.03091e-05
2.4155e-05
5.01568e-05
3.67053e-05
4.54283e-05
4.62221e-05
2.63185e-05
5.39851e-05
-6.69251e-06
5.08343e-05
-3.33343e-05
3.3919e-05
-5.02629e-05
5.5796e-05
-6.4829e-05
7.20664e-05
-6.33208e-05
3.49897e-05
-4.94844e-05
-2.6578e-05
-2.60514e-05
-9.58469e-05
-0.000117857
-1.84238e-05
1.57311e-05
5.12803e-06
1.00848e-05
4.55495e-05
-9.11724e-05
5.3183e-05
-9.19367e-05
4.8682e-05
-5.0092e-05
4.11949e-05
-9.96099e-06
3.78115e-05
1.11439e-05
3.79566e-05
2.40098e-05
3.97227e-05
3.49392e-05
4.25436e-05
4.34012e-05
3.73962e-05
5.91325e-05
1.6947e-05
7.12836e-05
-1.25359e-05
6.34019e-05
-2.083e-05
6.40901e-05
-2.07806e-05
7.2017e-05
-1.62523e-05
3.04614e-05
-1.05639e-05
-3.22664e-05
-4.01507e-06
-0.000102396
-0.000121872
-1.73847e-05
3.31158e-05
8.97024e-06
-1.62702e-05
3.65779e-05
-0.00011878
4.664e-05
-0.000101999
4.35082e-05
-4.69603e-05
3.06944e-05
2.85284e-06
2.41659e-05
1.76724e-05
2.23078e-05
2.58679e-05
2.14236e-05
3.58234e-05
2.50053e-05
3.98195e-05
3.07393e-05
5.33985e-05
3.32785e-05
6.87443e-05
1.79113e-05
7.87691e-05
9.63339e-06
7.2368e-05
1.90966e-05
6.25538e-05
2.82681e-05
2.12899e-05
3.24967e-05
-3.6495e-05
2.2665e-05
-9.2564e-05
-9.92074e-05
-1.09458e-05
4.40616e-05
1.34634e-05
-4.06794e-05
2.10727e-05
-0.000126389
3.47742e-05
-0.0001157
4.10167e-05
-5.32028e-05
2.47626e-05
1.9107e-05
8.72173e-06
3.37133e-05
3.46086e-06
3.11288e-05
3.22378e-06
3.60605e-05
4.33765e-06
3.87056e-05
1.37327e-05
4.40034e-05
3.1965e-05
5.0512e-05
3.74176e-05
7.33166e-05
3.88858e-05
7.08997e-05
5.03186e-05
5.1121e-05
6.03404e-05
1.12681e-05
6.09641e-05
-3.71187e-05
3.91677e-05
-7.07676e-05
-6.00397e-05
-8.08818e-06
5.21497e-05
8.60812e-06
-5.73757e-05
3.29805e-06
-0.000121079
2.11545e-05
-0.000133557
3.69408e-05
-6.89891e-05
2.80783e-05
2.79695e-05
3.69179e-06
5.80998e-05
-1.90547e-05
5.38753e-05
-3.95455e-05
5.65512e-05
-4.35747e-05
4.27348e-05
-2.07995e-05
2.12282e-05
1.68419e-05
1.28706e-05
3.59579e-05
5.42005e-05
4.95416e-05
5.7316e-05
6.23006e-05
3.8362e-05
7.02188e-05
3.35001e-06
6.58179e-05
-3.27178e-05
3.97091e-05
-4.46588e-05
-2.03306e-05
-1.39865e-05
6.61362e-05
-1.0104e-05
-6.12582e-05
-1.11054e-05
-0.000120078
-2.36446e-06
-0.000142298
8.54239e-06
-7.9896e-05
1.28821e-05
2.36298e-05
-1.90726e-05
9.00545e-05
-6.20067e-05
9.68094e-05
-9.08916e-05
8.54361e-05
-9.07843e-05
4.26276e-05
-5.29298e-05
-1.66262e-05
-5.27872e-06
-3.47805e-05
1.756e-05
3.13618e-05
3.70954e-05
3.77806e-05
4.96925e-05
2.57649e-05
5.46474e-05
-1.60489e-06
4.4747e-05
-2.28175e-05
2.59307e-05
-2.58425e-05
5.6001e-06
2.98713e-06
5.29703e-05
8.17535e-07
5.42844e-05
-3.47665e-06
4.70973e-05
-1.56162e-05
4.08404e-05
-3.53348e-05
3.42086e-05
-5.45555e-05
2.73019e-05
-6.53494e-05
1.76869e-05
-6.8894e-05
5.07789e-06
-6.52406e-05
-8.58874e-06
-5.752e-05
-1.69235e-05
-4.88975e-05
-1.99216e-05
-4.13679e-05
-1.92658e-05
-3.51544e-05
-1.73663e-05
-2.99998e-05
-1.54382e-05
-2.52024e-05
-1.52075e-05
-1.9626e-05
-1.81145e-05
-1.39382e-05
-2.13984e-05
-1.08428e-05
-2.11052e-05
-1.12428e-05
-1.88655e-05
-1.19099e-05
-2.04948e-05
-9.21029e-06
-2.65179e-05
1.78912e-06
-3.38823e-05
-3.26272e-05
2.62497e-05
-6.94908e-06
5.99193e-05
-1.87272e-05
6.60625e-05
-3.55562e-05
6.39263e-05
-5.45442e-05
5.98284e-05
-7.12943e-05
5.09587e-05
-8.08144e-05
3.6822e-05
-8.30995e-05
1.99721e-05
-8.25647e-05
4.54306e-06
-7.907e-05
-1.20834e-05
-7.05872e-05
-2.54063e-05
-6.21949e-05
-2.83139e-05
-5.55683e-05
-2.58924e-05
-5.03482e-05
-2.25864e-05
-4.66962e-05
-1.90902e-05
-4.41853e-05
-1.77184e-05
-3.83771e-05
-2.39226e-05
-2.72708e-05
-3.25048e-05
-1.85275e-05
-2.98485e-05
-1.78918e-05
-1.95012e-05
-1.79148e-05
-2.04719e-05
-9.56557e-06
-3.48671e-05
8.62545e-06
-5.20733e-05
-5.08396e-05
2.68379e-05
-4.93498e-05
0.000109269
-7.57383e-05
9.2451e-05
-0.000106079
9.42665e-05
-0.000130839
8.45889e-05
-0.000155814
7.59338e-05
-0.000175942
5.69502e-05
-0.000188892
3.29218e-05
-0.000191217
6.86746e-06
-0.000184092
-1.92076e-05
-0.000170319
-3.918e-05
-0.000153983
-4.46494e-05
-0.00014318
-3.66952e-05
-0.000141509
-2.42581e-05
-0.000146653
-1.39458e-05
-0.000151583
-1.27884e-05
-0.000136233
-3.92725e-05
-0.000102046
-6.66918e-05
-6.95264e-05
-6.23683e-05
-5.29179e-05
-3.61097e-05
-4.74719e-05
-2.59178e-05
-4.03699e-05
-4.19691e-05
-3.88093e-05
-5.36339e-05
-3.3475e-05
-5.61739e-05
-0.000322905
0.000432174
-0.000400703
0.00017025
-0.00045298
0.000146543
-0.00046618
9.77887e-05
-0.000455713
6.54672e-05
-0.000430471
3.17081e-05
-0.000396722
-8.26749e-07
-0.00036058
-2.9275e-05
-0.000324647
-5.51408e-05
-0.000290989
-7.28381e-05
-0.00026052
-7.51178e-05
-0.000236775
-6.04401e-05
-0.000236871
-2.41623e-05
-0.000261423
1.06059e-05
-0.000275728
1.51687e-06
-0.000237499
-7.7502e-05
-0.000188917
-0.000115273
-0.000148198
-0.000103087
-0.000116882
-6.74257e-05
-0.000105075
-3.77251e-05
-0.000112139
-3.49055e-05
-0.000144321
-2.14511e-05
1.30638e-05
-0.00019086
-0.000283924
0.000716097
-0.000362761
0.000249087
-0.00039853
0.000182313
-0.000407294
0.000106552
-0.000396888
5.50611e-05
-0.000368547
3.3672e-06
-0.000327551
-4.18228e-05
-0.000293894
-6.29321e-05
-0.000280178
-6.8857e-05
-0.00028528
-6.77362e-05
-0.000282264
-7.81339e-05
-0.000258338
-8.43656e-05
-0.000231511
-5.09892e-05
-0.000222931
2.02589e-06
-0.000246686
2.52718e-05
-0.000228664
-9.55241e-05
-0.000204307
-0.000139631
-0.000185433
-0.00012196
-0.000169603
-8.32562e-05
-0.000162781
-4.45464e-05
-0.000183615
-1.40721e-05
-0.000225213
2.01474e-05
5.40197e-05
-0.000266169
-0.000147738
0.000863835
-0.000258791
0.000360139
-0.000303146
0.000226668
-0.000303321
0.000106727
-0.000270194
2.19343e-05
-0.000225255
-4.15715e-05
-0.000186933
-8.01452e-05
-0.000167744
-8.21211e-05
-0.000184005
-5.25962e-05
-0.000214711
-3.70296e-05
-0.000234788
-5.80569e-05
-0.000234856
-8.4298e-05
-0.000234094
-5.17508e-05
-0.000223311
-8.75673e-06
-0.000223843
2.58031e-05
-0.000229696
-8.96711e-05
-0.000219777
-0.00014955
-0.000211512
-0.000130226
-0.00020599
-8.87783e-05
-0.000208884
-4.16523e-05
-0.000230864
7.90814e-06
-0.000262955
5.22383e-05
8.08472e-05
-0.000289782
-7.87831e-05
0.000942618
-0.000191484
0.00047284
-0.000220266
0.00025545
-0.000217579
0.00010404
-0.000197518
1.87312e-06
-0.00019013
-4.89591e-05
-0.000198529
-7.17469e-05
-0.000207108
-7.35414e-05
-0.000195818
-6.38858e-05
-0.00017945
-5.33976e-05
-0.000181458
-5.6049e-05
-0.000203866
-6.18905e-05
-0.000209888
-4.5729e-05
-0.000216141
-2.50349e-06
-0.00020435
1.40117e-05
-0.00021675
-7.72708e-05
-0.000237146
-0.000129153
-0.000239063
-0.00012831
-0.000234336
-9.35053e-05
-0.000236063
-3.99254e-05
-0.000246238
1.80835e-05
-0.000263828
6.9828e-05
8.51543e-05
-0.000268135
-1.17965e-05
0.000954415
-0.000138342
0.000599385
-0.000150999
0.000268107
-0.000138259
9.13004e-05
-0.000126603
-9.78206e-06
-0.000116287
-5.92763e-05
-0.00011594
-7.20933e-05
-0.000125979
-6.35023e-05
-0.000140642
-4.9223e-05
-0.000155552
-3.84872e-05
-0.000178556
-3.30454e-05
-0.000208946
-3.15005e-05
-0.000227281
-2.73945e-05
-0.000223668
-6.11695e-06
-0.000210947
1.29111e-06
-0.000242125
-4.60933e-05
-0.00026939
-0.000101887
-0.000267422
-0.000130278
-0.000252921
-0.000108006
-0.000236036
-5.68106e-05
-0.000223256
5.30418e-06
-0.000207094
5.36654e-05
6.50345e-05
-0.000186974
7.62038e-05
0.000878211
-4.02446e-05
0.000715834
-9.07085e-05
0.000318571
-8.93396e-05
8.99317e-05
-8.28719e-05
-1.62499e-05
-7.78245e-05
-6.43235e-05
-7.16579e-05
-7.82599e-05
-6.93558e-05
-6.58043e-05
-7.60022e-05
-4.25768e-05
-9.39707e-05
-2.05188e-05
-0.000121246
-5.76979e-06
-0.000153199
4.52742e-07
-0.000186369
5.77485e-06
-0.000204103
1.16179e-05
-0.000213906
1.10932e-05
-0.000250381
-9.61777e-06
-0.000293646
-5.86226e-05
-0.000307784
-0.000116141
-0.000287477
-0.000128312
-0.000239459
-0.000104829
-0.000197628
-3.65274e-05
-0.000163463
1.95008e-05
3.38925e-05
-0.000132321
0.000133072
0.000745139
8.6499e-05
0.000762407
-1.6988e-06
0.000406769
-3.75542e-05
0.000125787
-4.96833e-05
-4.12078e-06
-5.26808e-05
-6.13258e-05
-4.9097e-05
-8.18438e-05
-4.58489e-05
-6.90526e-05
-4.66871e-05
-4.17386e-05
-5.19655e-05
-1.52402e-05
-6.47145e-05
6.97916e-06
-8.968e-05
2.5418e-05
-0.000123083
3.91779e-05
-0.00015579
4.43245e-05
-0.000185828
4.11317e-05
-0.000220072
2.46254e-05
-0.000259874
-1.88202e-05
-0.000290997
-8.50175e-05
-0.000285084
-0.000134225
-0.000254888
-0.000135025
-0.000208025
-8.33898e-05
-0.000164758
-2.37662e-05
-2.16717e-06
-0.000128698
0.000164174
0.000580965
0.000185205
0.000741376
0.000105142
0.000486831
3.36123e-05
0.000197317
-1.96382e-06
3.14556e-05
-1.51722e-05
-4.81173e-05
-1.93559e-05
-7.76601e-05
-2.11937e-05
-6.72148e-05
-2.51657e-05
-3.77665e-05
-3.12115e-05
-9.19433e-06
-3.95518e-05
1.53194e-05
-5.21333e-05
3.79993e-05
-7.13144e-05
5.83589e-05
-0.000101634
7.46445e-05
-0.00013958
7.90774e-05
-0.000174351
5.93962e-05
-0.000199245
6.07399e-06
-0.000212221
-7.20421e-05
-0.000211129
-0.000135317
-0.000187168
-0.000158987
-0.000144236
-0.000126321
-9.45499e-05
-7.34524e-05
-4.12519e-05
-5.54652e-05
0.000163697
0.000417268
0.00023263
0.000672444
0.000196823
0.000522637
0.000121659
0.000272481
6.73255e-05
8.57892e-05
3.71905e-05
-1.79824e-05
2.12967e-05
-6.17665e-05
9.2406e-06
-5.51586e-05
-2.47369e-06
-2.60521e-05
-1.27734e-05
1.10544e-06
-2.17499e-05
2.42959e-05
-2.94449e-05
4.56942e-05
-3.63036e-05
6.52176e-05
-4.8129e-05
8.64699e-05
-7.03007e-05
0.000101249
-0.000100042
8.91373e-05
-0.000130086
3.61181e-05
-0.000155117
-4.70111e-05
-0.000169875
-0.000120559
-0.000163936
-0.000164926
-0.000142592
-0.000147665
-9.86175e-05
-0.000117427
-8.89256e-05
-5.09437e-05
0.000136995
0.000280273
0.00023604
0.000573399
0.000244315
0.000514363
0.000195616
0.00032118
0.000141023
0.000140382
0.000100343
2.2698e-05
6.85135e-05
-2.99373e-05
4.30949e-05
-2.97401e-05
2.26691e-05
-5.62623e-06
6.56489e-06
1.72096e-05
-4.69103e-06
3.55518e-05
-1.16562e-05
5.26596e-05
-1.4374e-05
6.79355e-05
-1.3548e-05
8.56438e-05
-1.58246e-05
0.000103526
-2.97684e-05
0.000103081
-6.13076e-05
6.76573e-05
-0.000107618
-7.0072e-07
-0.00014579
-8.23873e-05
-0.000174139
-0.000136577
-0.000159705
-0.000162099
-0.000126638
-0.000150494
-0.000129222
-8.63418e-05
9.68181e-05
0.000183455
0.00020453
0.000465687
0.000247015
0.000471878
0.000232693
0.000335502
0.000192992
0.000180083
0.000149532
6.61572e-05
0.000108053
1.15426e-05
7.2552e-05
5.76062e-06
4.54995e-05
2.14262e-05
2.56049e-05
3.71043e-05
1.20093e-05
4.91474e-05
4.14669e-06
6.05224e-05
1.11607e-06
7.09661e-05
3.35519e-06
8.34046e-05
8.8944e-06
9.79862e-05
7.45297e-06
0.000104523
-1.35755e-05
8.86858e-05
-5.56439e-05
4.13676e-05
-0.000107954
-3.00773e-05
-0.000146958
-9.75733e-05
-0.000162494
-0.000146564
-0.000140022
-0.000172966
-0.000165389
-0.000103855
5.06198e-05
0.000132835
0.00014753
0.000368777
0.000211498
0.00040791
0.000226426
0.000320574
0.000207181
0.000199328
0.000170127
0.000103212
0.000127533
5.41365e-05
8.99169e-05
4.33765e-05
6.17912e-05
4.95522e-05
4.14712e-05
5.74243e-05
2.70848e-05
6.35339e-05
1.79373e-05
6.96699e-05
1.26832e-05
7.62201e-05
1.18557e-05
8.4232e-05
1.53866e-05
9.44552e-05
1.80166e-05
0.000101893
7.6792e-06
9.90232e-05
-2.36157e-05
7.26623e-05
-6.7156e-05
1.34628e-05
-0.000107896
-5.68332e-05
-0.000125675
-0.000128785
-0.000114387
-0.000184254
-0.0001817
-9.80756e-05
1.11378e-05
0.000121698
8.61557e-05
0.000293759
0.000155031
0.000339034
0.000188864
0.000286742
0.000187519
0.000200672
0.0001618
0.000128931
0.000126667
8.92698e-05
9.46395e-05
7.54038e-05
7.03368e-05
7.38552e-05
5.23766e-05
7.53846e-05
3.89144e-05
7.69961e-05
2.9311e-05
7.92732e-05
2.25594e-05
8.29716e-05
1.83512e-05
8.84401e-05
1.7241e-05
9.55653e-05
1.73877e-05
0.000101746
1.16367e-05
0.000104774
-1.0882e-05
9.51809e-05
-4.69729e-05
4.95535e-05
-8.20214e-05
-2.17849e-05
-9.29506e-05
-0.000117856
-9.8373e-05
-0.000178832
-0.000180649
-9.94245e-05
-1.22973e-05
0.000133995
3.95705e-05
0.000241891
0.00010139
0.000277215
0.000141304
0.000246828
0.000150642
0.000191334
0.000136698
0.000142875
0.000113121
0.000112846
9.04318e-05
9.80936e-05
7.23302e-05
9.19568e-05
5.82026e-05
8.95122e-05
4.68307e-05
8.8368e-05
3.77329e-05
8.83709e-05
3.04327e-05
9.02716e-05
2.46092e-05
9.42636e-05
2.04456e-05
9.97289e-05
1.74559e-05
0.000104736
1.25817e-05
0.000109648
-3.15967e-06
0.000110922
-3.25642e-05
7.89579e-05
-6.30388e-05
8.68971e-06
-7.91209e-05
-0.000101774
-9.09512e-05
-0.000167002
-0.000171272
-0.000100328
-1.58378e-05
0.000149833
1.59623e-05
0.000210091
6.41364e-05
0.000229041
9.98962e-05
0.000211068
0.000113065
0.000178165
0.000108438
0.000147503
9.57699e-05
0.000125514
8.20934e-05
0.00011177
7.01069e-05
0.000103943
5.99547e-05
9.96643e-05
5.11002e-05
9.72224e-05
4.32586e-05
9.62125e-05
3.63664e-05
9.71637e-05
3.04036e-05
0.000100226
2.53891e-05
0.000104744
2.09748e-05
0.00010915
1.65376e-05
0.000114085
6.82749e-06
0.000120632
-1.65696e-05
0.000102355
-4.48776e-05
3.69977e-05
-7.32479e-05
-7.34037e-05
-9.11957e-05
-0.000149054
-0.000157134
-0.000105334
-8.33497e-06
0.000158168
1.01353e-05
0.000191621
4.36748e-05
0.000195501
7.087e-05
0.000183873
8.37727e-05
0.000165263
8.49731e-05
0.000146303
8.00314e-05
0.000130456
7.29906e-05
0.000118811
6.57925e-05
0.000111142
5.90165e-05
0.00010644
5.25876e-05
0.000103651
4.63975e-05
0.000102403
4.05932e-05
0.000102968
3.53891e-05
0.00010543
3.08156e-05
0.000109317
2.64267e-05
0.000113539
2.25087e-05
0.000118003
1.68972e-05
0.000126244
-1.92782e-06
0.00012118
-3.00318e-05
6.51015e-05
-6.81427e-05
-3.52929e-05
-9.09912e-05
-0.000126205
-0.000137711
-0.000110414
2.49046e-07
0.000157918
1.21658e-05
0.000179704
3.41525e-05
0.000173515
5.31604e-05
0.000164865
6.41614e-05
0.000154262
6.81111e-05
0.000142353
6.7585e-05
0.000130982
6.4706e-05
0.00012169
6.08441e-05
0.000115003
5.66767e-05
0.000110607
5.23595e-05
0.000107968
4.79168e-05
0.000106845
4.35521e-05
0.000107333
3.95325e-05
0.00010945
3.59086e-05
0.000112941
3.21964e-05
0.000117251
2.85245e-05
0.000121675
2.47895e-05
0.000129979
9.3732e-06
0.000136596
-2.50367e-05
9.95113e-05
-6.4651e-05
4.3214e-06
-9.00242e-05
-0.000100832
-0.000114679
-0.000113057
5.1654e-06
0.000152753
1.50927e-05
0.000169777
2.97747e-05
0.000158833
4.28641e-05
0.000151776
5.1742e-05
0.000145384
5.65321e-05
0.000137563
5.81806e-05
0.000129334
5.7738e-05
0.000122133
5.61224e-05
0.000116619
5.3922e-05
0.000112808
5.138e-05
0.00011051
4.86085e-05
0.000109616
4.57968e-05
0.000110144
4.3152e-05
0.000112095
4.07066e-05
0.000115386
3.80453e-05
0.000119912
3.47799e-05
0.000124941
3.17002e-05
0.000133058
2.03625e-05
0.000147934
-1.45135e-05
0.000134387
-5.92014e-05
4.90092e-05
-8.74216e-05
-7.26119e-05
-9.0027e-05
-0.000112074
6.60077e-06
0.000146152
1.62034e-05
0.000160175
2.69598e-05
0.000148077
3.64121e-05
0.000142324
4.36082e-05
0.000138188
4.84307e-05
0.00013274
5.11006e-05
0.000126664
5.21123e-05
0.000121121
5.20494e-05
0.000116682
5.13639e-05
0.000113493
5.03175e-05
0.000111557
4.90729e-05
0.000110861
4.77953e-05
0.000111422
4.66235e-05
0.000113266
4.55681e-05
0.000116442
4.43632e-05
0.000121117
4.23151e-05
0.000126989
4.01977e-05
0.000135176
3.44578e-05
0.000153674
6.58581e-06
0.000162259
-4.65069e-05
0.000102102
-7.84861e-05
-4.06327e-05
-6.49109e-05
-0.000103602
6.48609e-06
0.000139666
1.56725e-05
0.000150989
2.43599e-05
0.000139389
3.17669e-05
0.000134917
3.78626e-05
0.000132092
4.25246e-05
0.000128078
4.57156e-05
0.000123473
4.76634e-05
0.000119173
4.87313e-05
0.000115614
4.92543e-05
0.00011297
4.94819e-05
0.000111329
4.96008e-05
0.000110742
4.97688e-05
0.000111254
5.01033e-05
0.000112932
5.0639e-05
0.000115906
5.12975e-05
0.000120459
5.15054e-05
0.000126781
5.15487e-05
0.000135133
5.22689e-05
0.000152953
3.78697e-05
0.000176659
-1.66223e-05
0.000156594
-6.12726e-05
4.0176e-06
-3.85476e-05
-8.76359e-05
6.0335e-06
0.000133633
1.44533e-05
0.000142569
2.18594e-05
0.000131983
2.81161e-05
0.00012866
3.35469e-05
0.000126662
3.80587e-05
0.000123566
4.15553e-05
0.000119976
4.41493e-05
0.000116579
4.60737e-05
0.000113689
4.75786e-05
0.000111465
4.88889e-05
0.000110018
5.01994e-05
0.000109431
5.16797e-05
0.000109773
5.34761e-05
0.000111136
5.57084e-05
0.000113674
5.85037e-05
0.000117664
6.17662e-05
0.000123518
6.5534e-05
0.000131365
7.32311e-05
0.000145256
7.94568e-05
0.000170433
5.04781e-05
0.000185573
-1.6198e-05
7.06938e-05
-5.09736e-06
-4.96482e-05
5.61863e-06
0.000128015
1.31399e-05
0.000135048
1.9613e-05
0.00012551
2.51719e-05
0.000123101
3.01865e-05
0.000121647
3.458e-05
0.000119173
3.82679e-05
0.000116288
4.13193e-05
0.000113528
4.38949e-05
0.000111114
4.61873e-05
0.000109173
4.83946e-05
0.000107811
5.0711e-05
0.000107115
5.3327e-05
0.000107157
5.64412e-05
0.000108021
6.02852e-05
0.00010983
6.51813e-05
0.000112768
7.15611e-05
0.000117139
7.98659e-05
0.00012306
9.35388e-05
0.000131584
0.000118096
0.000145876
0.000133341
0.000170327
8.40367e-05
0.000119999
3.30995e-05
4.58399e-05
5.2675e-06
0.000122747
1.194e-05
0.000128376
1.76916e-05
0.000119759
2.27781e-05
0.000118015
2.74995e-05
0.000116926
3.17885e-05
0.000114884
3.55888e-05
0.000112488
3.89553e-05
0.000110162
4.20098e-05
0.000108059
4.49066e-05
0.000106276
4.78194e-05
0.000104898
5.09362e-05
0.000103998
5.44621e-05
0.000103631
5.86365e-05
0.000103847
6.3769e-05
0.000104697
7.03016e-05
0.000106235
7.89135e-05
0.000108527
9.05031e-05
0.000111471
0.000107109
0.000114978
0.000135268
0.000117718
0.000175442
0.000130153
0.000184099
0.000111342
5.53151e-05
0.000161884
4.94641e-06
0.000117801
1.08921e-05
0.00012243
1.60767e-05
0.000114574
2.08052e-05
0.000113287
2.529e-05
0.000112441
2.94724e-05
0.000110702
3.33213e-05
0.000108639
3.68874e-05
0.000106595
4.027e-05
0.000104677
4.35971e-05
0.000102949
4.70209e-05
0.000101475
5.0716e-05
0.000100303
5.48849e-05
9.94625e-05
5.9773e-05
9.8959e-05
6.5697e-05
9.87731e-05
7.30898e-05
9.8842e-05
8.25631e-05
9.90533e-05
9.49498e-05
9.90842e-05
0.000111299
9.86284e-05
0.000133824
9.51929e-05
0.000170436
9.3541e-05
0.000199999
8.17789e-05
4.75769e-05
0.000207737
4.63804e-06
0.000113163
9.98378e-06
0.000117084
1.47134e-05
0.000109845
1.91431e-05
0.000108857
2.34152e-05
0.000108169
2.74791e-05
0.000106638
3.13218e-05
0.000104797
3.49911e-05
0.000102926
3.85708e-05
0.000101097
4.2169e-05
9.93503e-05
4.5917e-05
9.77265e-05
4.9969e-05
9.6251e-05
5.45063e-05
9.49251e-05
5.97456e-05
9.37196e-05
6.59528e-05
9.25659e-05
7.3458e-05
9.13368e-05
8.26796e-05
8.98317e-05
9.40808e-05
8.7683e-05
0.000108257
8.44527e-05
0.000124804
7.86458e-05
0.000148094
7.0251e-05
0.000173221
5.66518e-05
3.42949e-05
0.000186503
4.33935e-06
0.000108823
9.19101e-06
0.000112232
1.35425e-05
0.000105493
1.77045e-05
0.000104695
2.17711e-05
0.000104102
2.56994e-05
0.000102709
2.9487e-05
0.000101009
3.31781e-05
9.92348e-05
3.68439e-05
9.7431e-05
4.0575e-05
9.56191e-05
4.44815e-05
9.382e-05
4.86924e-05
9.20401e-05
5.33569e-05
9.02605e-05
5.86463e-05
8.84302e-05
6.47561e-05
8.64562e-05
7.19013e-05
8.41917e-05
8.03246e-05
8.14085e-05
9.02127e-05
7.77949e-05
0.000101821
7.28449e-05
0.000114565
6.59011e-05
0.000128815
5.60012e-05
0.000143468
4.19984e-05
2.42853e-05
0.000153478
4.05168e-06
0.000104772
8.48898e-06
0.000107795
1.25141e-05
0.000101468
1.64244e-05
0.000100784
2.0284e-05
0.000100243
2.40569e-05
9.89364e-05
2.77457e-05
9.73203e-05
3.13902e-05
9.55903e-05
3.50498e-05
9.37713e-05
3.87991e-05
9.18697e-05
4.27274e-05
8.98918e-05
4.69374e-05
8.783e-05
5.15447e-05
8.56532e-05
5.66748e-05
8.33002e-05
6.24601e-05
8.06711e-05
6.90295e-05
7.76224e-05
7.65003e-05
7.39378e-05
8.49299e-05
6.93654e-05
9.42982e-05
6.34765e-05
0.000104288
5.59108e-05
0.000114171
4.61188e-05
0.000122811
3.33579e-05
1.84487e-05
0.000128648
3.77704e-06
0.000100995
7.85611e-06
0.000103716
1.15904e-05
9.77336e-05
1.52565e-05
9.71183e-05
1.89034e-05
9.65957e-05
2.25005e-05
9.53393e-05
2.60522e-05
9.37686e-05
2.95929e-05
9.20495e-05
3.31714e-05
9.01927e-05
3.68472e-05
8.81938e-05
4.06904e-05
8.60486e-05
4.47796e-05
8.37409e-05
4.91996e-05
8.12333e-05
5.40374e-05
7.84626e-05
5.93757e-05
7.53329e-05
6.52835e-05
7.17148e-05
7.17955e-05
6.74259e-05
7.88972e-05
6.22637e-05
8.64391e-05
5.59348e-05
9.41626e-05
4.81874e-05
0.000101484
3.87976e-05
0.000107439
2.74032e-05
1.45107e-05
0.000111377
3.51796e-06
9.74768e-05
7.27581e-06
9.99582e-05
1.07432e-05
9.42663e-05
1.41688e-05
9.36927e-05
1.7596e-05
9.31684e-05
2.09986e-05
9.19368e-05
2.43807e-05
9.03864e-05
2.77711e-05
8.8659e-05
3.12088e-05
8.6755e-05
3.474e-05
8.46626e-05
3.84175e-05
8.23711e-05
4.22991e-05
7.98594e-05
4.64438e-05
7.70887e-05
5.09077e-05
7.39988e-05
5.57362e-05
7.05046e-05
6.09556e-05
6.64955e-05
6.65529e-05
6.18287e-05
7.24695e-05
5.63471e-05
7.85407e-05
4.98636e-05
8.45197e-05
4.22086e-05
9.00353e-05
3.32821e-05
9.4491e-05
2.29475e-05
1.1536e-05
9.74658e-05
3.27754e-06
9.41993e-05
6.73671e-06
9.64989e-05
9.95202e-06
9.1051e-05
1.31387e-05
9.05058e-05
1.63399e-05
8.99671e-05
1.95322e-05
8.87444e-05
2.27187e-05
8.71997e-05
2.59226e-05
8.5455e-05
2.9174e-05
8.35035e-05
3.25076e-05
8.1329e-05
3.59615e-05
7.89172e-05
3.95761e-05
7.6245e-05
4.33897e-05
7.32752e-05
4.74348e-05
6.99539e-05
5.17306e-05
6.62089e-05
5.62761e-05
6.19501e-05
6.10358e-05
5.7069e-05
6.59344e-05
5.14486e-05
7.08297e-05
4.49683e-05
7.55145e-05
3.75239e-05
7.97239e-05
2.90728e-05
8.30859e-05
1.95855e-05
9.32205e-06
8.52999e-05
3.05796e-06
9.11413e-05
6.23168e-06
9.3325e-05
9.20094e-06
8.80815e-05
1.21493e-05
8.75573e-05
1.51195e-05
8.69969e-05
1.80895e-05
8.57743e-05
2.10612e-05
8.4228e-05
2.40523e-05
8.24638e-05
2.70852e-05
8.04706e-05
3.01847e-05
7.82296e-05
3.33772e-05
7.57248e-05
3.66886e-05
7.29336e-05
4.01419e-05
6.98219e-05
4.37524e-05
6.63435e-05
4.75227e-05
6.24388e-05
5.14365e-05
5.80363e-05
5.54508e-05
5.30547e-05
5.94899e-05
4.74094e-05
6.34361e-05
4.10221e-05
6.71265e-05
3.38335e-05
7.03654e-05
2.58338e-05
7.29156e-05
1.70353e-05
7.63782e-06
7.45999e-05
2.85843e-06
8.82827e-05
5.7555e-06
9.04277e-05
8.47747e-06
8.53594e-05
1.11861e-05
8.48486e-05
1.39215e-05
8.42616e-05
1.66609e-05
8.30349e-05
1.94045e-05
8.14843e-05
2.21654e-05
7.97029e-05
2.49593e-05
7.76767e-05
2.78032e-05
7.53857e-05
3.07135e-05
7.28144e-05
3.37057e-05
6.99414e-05
3.67908e-05
6.67368e-05
3.99727e-05
6.31616e-05
4.32438e-05
5.91677e-05
4.65808e-05
5.46994e-05
4.99399e-05
4.96956e-05
5.32528e-05
4.40964e-05
5.64243e-05
3.78506e-05
5.93323e-05
3.09254e-05
6.18405e-05
2.33255e-05
6.38022e-05
1.50737e-05
6.32215e-06
6.51179e-05
2.67424e-06
8.56083e-05
5.30247e-06
8.77993e-05
7.77053e-06
8.28912e-05
1.02354e-05
8.23837e-05
1.27324e-05
8.17646e-05
1.5235e-05
8.05323e-05
1.77416e-05
7.89777e-05
2.02613e-05
7.71832e-05
2.28047e-05
7.51333e-05
2.53821e-05
7.28083e-05
2.80026e-05
7.01939e-05
3.06732e-05
6.72707e-05
3.33966e-05
6.40133e-05
3.6169e-05
6.03893e-05
3.89767e-05
5.636e-05
4.17939e-05
5.18822e-05
4.45795e-05
4.691e-05
4.72755e-05
4.14003e-05
4.98071e-05
3.53189e-05
5.20853e-05
2.86472e-05
5.40172e-05
2.13937e-05
5.55093e-05
1.35817e-05
5.32881e-06
5.65027e-05
2.49772e-06
8.31105e-05
4.86554e-06
8.54314e-05
7.06933e-06
8.06874e-05
9.28358e-06
8.01695e-05
1.15373e-05
7.95109e-05
1.37968e-05
7.82728e-05
1.60591e-05
7.67155e-05
1.83296e-05
7.49127e-05
2.06149e-05
7.28479e-05
2.29204e-05
7.05027e-05
2.52492e-05
6.7865e-05
2.76021e-05
6.49178e-05
2.99755e-05
6.16398e-05
3.23603e-05
5.80045e-05
3.4739e-05
5.39813e-05
3.70852e-05
4.9536e-05
3.93612e-05
4.46339e-05
4.15181e-05
3.92434e-05
4.34963e-05
3.33407e-05
4.52291e-05
2.69144e-05
4.66504e-05
1.99725e-05
4.76965e-05
1.25357e-05
4.69519e-06
4.83302e-05
2.31909e-06
8.07913e-05
4.43418e-06
8.33163e-05
6.36159e-06
7.876e-05
8.31603e-06
7.8215e-05