/*--------------------------------*- C++ -*----------------------------------*\
| =========                 |                                                 |
| \\      /  F ield         | OpenFOAM: The Open Source CFD Toolbox           |
|  \\    /   O peration     | Version:  2206                                  |
|   \\  /    A nd           | Website:  www.openfoam.com                      |
|    \\/     M anipulation  |                                                 |
\*---------------------------------------------------------------------------*/
FoamFile
{
    version     2.0;
    format      ascii;
    arch        "LSB;label=32;scalar=64";
    class       volVectorField;
    location    "0.85";
    object      U;
}
// * * * * * * * * * * * * * * * * * * * * * * * * * * * * * * * * * * * * * //

dimensions      [0 1 -1 0 0 0 0];

internalField   nonuniform List<vector> 
2268
(
(-0.0221442 0.0083037 0)
(-0.0813026 0.0150007 0)
(-0.157049 0.0200292 0)
(-0.240189 0.0203488 0)
(-0.29864 0.0115791 0)
(-0.308741 0.000258982 0)
(-0.288615 -0.00396068 0)
(-0.273878 -0.00287199 0)
(-0.264496 -0.00213227 0)
(-0.258555 -0.0015273 0)
(-0.255792 -0.000786609 0)
(-0.255763 -0.00176977 0)
(-0.250731 -0.00666104 0)
(-0.234774 -0.0125905 0)
(-0.221787 -0.00749292 0)
(-0.245293 0.0148291 0)
(-0.322162 0.02742 0)
(-0.372893 0.0111147 0)
(-0.321843 -0.0172537 0)
(-0.227725 -0.029094 0)
(-0.137453 -0.0290619 0)
(-0.0546944 -0.0249285 0)
(-0.0060439 -0.0101839 0)
(-0.054966 0.0458709 0)
(-0.157517 0.0543396 0)
(-0.251451 0.0563422 0)
(-0.319051 0.0461183 0)
(-0.337308 0.0200393 0)
(-0.319542 -0.00547099 0)
(-0.298342 -0.0135317 0)
(-0.278349 -0.00925242 0)
(-0.269239 -0.00485232 0)
(-0.265769 -0.0023898 0)
(-0.264286 -0.000405785 0)
(-0.26439 5.38001e-05 0)
(-0.270157 -0.00212523 0)
(-0.288765 -0.00181801 0)
(-0.323424 0.0132168 0)
(-0.360139 0.034392 0)
(-0.362783 0.0282141 0)
(-0.29342 -0.0130101 0)
(-0.197219 -0.0535811 0)
(-0.128561 -0.0639869 0)
(-0.0637752 -0.060454 0)
(-0.00614834 -0.0475003 0)
(0.0126801 -0.0164695 0)
(-0.0646753 0.0985573 0)
(-0.168084 0.100149 0)
(-0.255358 0.0911702 0)
(-0.318945 0.0659128 0)
(-0.343818 0.0218613 0)
(-0.33529 -0.0159542 0)
(-0.310585 -0.0263174 0)
(-0.288407 -0.0176176 0)
(-0.273999 -0.00880212 0)
(-0.263429 -0.00490126 0)
(-0.25185 -0.00243767 0)
(-0.240137 0.000522142 0)
(-0.23424 0.00467946 0)
(-0.240552 0.0118395 0)
(-0.256611 0.0238789 0)
(-0.261975 0.0268528 0)
(-0.222859 -0.00327665 0)
(-0.146094 -0.0553465 0)
(-0.0907229 -0.0856024 0)
(-0.0560524 -0.0886544 0)
(-0.00902101 -0.0838006 0)
(0.0305377 -0.0581875 0)
(0.0398828 -0.00443443 0)
(-0.0618454 0.151804 0)
(-0.154575 0.14463 0)
(-0.239004 0.125851 0)
(-0.307966 0.0883972 0)
(-0.338654 0.0278231 0)
(-0.333112 -0.0245776 0)
(-0.316834 -0.0390152 0)
(-0.30109 -0.0270675 0)
(-0.28642 -0.0159432 0)
(-0.273844 -0.0121572 0)
(-0.259486 -0.0107646 0)
(-0.241708 -0.00783065 0)
(-0.222493 -0.00126019 0)
(-0.203109 0.00976872 0)
(-0.180755 0.0207876 0)
(-0.148982 0.014832 0)
(-0.103954 -0.0205344 0)
(-0.0663347 -0.0671815 0)
(-0.0540611 -0.0932142 0)
(-0.0454685 -0.10108 0)
(-0.00414048 -0.102753 0)
(0.0300455 -0.0707945 0)
(0.0540512 0.0182326 0)
(-0.0541545 0.199614 0)
(-0.134833 0.185608 0)
(-0.214447 0.16026 0)
(-0.27982 0.113036 0)
(-0.306657 0.0375957 0)
(-0.306365 -0.0271206 0)
(-0.309657 -0.0441017 0)
(-0.310718 -0.0320312 0)
(-0.301063 -0.021328 0)
(-0.287732 -0.0182459 0)
(-0.272012 -0.0185045 0)
(-0.252819 -0.0176913 0)
(-0.229966 -0.0133688 0)
(-0.201392 -0.00554547 0)
(-0.163497 0.000384211 0)
(-0.119013 -0.00955168 0)
(-0.0809208 -0.0402912 0)
(-0.0646056 -0.0755415 0)
(-0.0676366 -0.096476 0)
(-0.0627019 -0.112487 0)
(-0.0282188 -0.124072 0)
(-0.00526677 -0.0913297 0)
(0.0540628 0.0333762 0)
(-0.0444966 0.240591 0)
(-0.111248 0.222023 0)
(-0.179216 0.190488 0)
(-0.232351 0.133866 0)
(-0.252785 0.0480124 0)
(-0.260986 -0.0219161 0)
(-0.292168 -0.0391131 0)
(-0.317094 -0.0308396 0)
(-0.316069 -0.025937 0)
(-0.302613 -0.0261689 0)
(-0.28368 -0.027843 0)
(-0.261652 -0.0282454 0)
(-0.237141 -0.0256312 0)
(-0.208995 -0.0209102 0)
(-0.174697 -0.019324 0)
(-0.136326 -0.0293186 0)
(-0.104171 -0.0526823 0)
(-0.0877473 -0.0780787 0)
(-0.0828556 -0.0976973 0)
(-0.0745756 -0.120034 0)
(-0.0618405 -0.138509 0)
(-0.0622032 -0.107529 0)
(0.0301493 0.0447947 0)
(-0.0328749 0.270982 0)
(-0.0851998 0.250588 0)
(-0.140511 0.21324 0)
(-0.178717 0.15045 0)
(-0.189107 0.0615703 0)
(-0.205134 -0.0102179 0)
(-0.274435 -0.0265144 0)
(-0.324341 -0.0227157 0)
(-0.331822 -0.0270748 0)
(-0.318509 -0.0334242 0)
(-0.29506 -0.0375303 0)
(-0.268012 -0.0388378 0)
(-0.239862 -0.0369867 0)
(-0.211053 -0.0334773 0)
(-0.180079 -0.0334296 0)
(-0.146599 -0.0431935 0)
(-0.11513 -0.0624541 0)
(-0.0923367 -0.0829954 0)
(-0.080309 -0.100369 0)
(-0.0754161 -0.120157 0)
(-0.0846708 -0.137688 0)
(-0.106413 -0.112444 0)
(-0.0447472 0.0199844 0)
(-0.021917 0.300094 0)
(-0.0572493 0.276273 0)
(-0.0920062 0.232007 0)
(-0.0980986 0.158493 0)
(-0.0873154 0.0686147 0)
(-0.131024 0.019485 0)
(-0.260803 0.0154254 0)
(-0.330346 -0.00208282 0)
(-0.345337 -0.0274517 0)
(-0.33179 -0.043418 0)
(-0.301107 -0.0515867 0)
(-0.26566 -0.053983 0)
(-0.231785 -0.0518589 0)
(-0.201044 -0.0479166 0)
(-0.171107 -0.0486181 0)
(-0.138436 -0.0597897 0)
(-0.104914 -0.0782367 0)
(-0.0791642 -0.0942307 0)
(-0.0678434 -0.104511 0)
(-0.0670463 -0.116305 0)
(-0.0795038 -0.130351 0)
(-0.101504 -0.120072 0)
(-0.0778534 -0.0218266 0)
(0.0861887 -0.0951846 0)
(0.259253 -0.0281823 0)
(-0.212607 0.0669703 0)
(-0.0494273 -0.0280649 0)
(0.345206 -0.100252 0)
(0.581986 -0.0751689 0)
(0.688976 0.00469298 0)
(0.569393 0.0724849 0)
(0.316465 0.108236 0)
(-0.0116347 0.0799113 0)
(-0.228598 -0.0581258 0)
(-0.160199 -0.0998077 0)
(-0.0699811 -0.0549153 0)
(-0.0921159 0.0421239 0)
(-0.447845 0.0760727 0)
(-0.835835 0.0841441 0)
(-1.01561 0.0556525 0)
(-0.785508 -0.0548996 0)
(-0.260139 -0.166045 0)
(0.00215755 -0.149924 0)
(-0.0428489 0.178304 0)
(-0.360495 0.0663546 0)
(0.399761 -0.285247 0)
(0.616102 -0.254621 0)
(0.70467 -0.125549 0)
(0.738921 0.0134249 0)
(0.72205 0.12848 0)
(0.617383 0.186478 0)
(0.402695 0.202102 0)
(0.146122 0.147889 0)
(-0.151592 0.0198293 0)
(-0.402086 0.00839555 0)
(-0.492924 0.178523 0)
(-0.894439 0.265869 0)
(-1.19911 0.201746 0)
(-1.11037 -0.0299235 0)
(-0.655793 -0.389815 0)
(-0.0874399 -0.480953 0)
(-0.164475 -0.046996 0)
(-0.223272 0.224425 0)
(0.0483751 -0.173589 0)
(0.527464 -0.455656 0)
(0.622897 -0.338018 0)
(0.626741 -0.134146 0)
(0.593722 0.0285292 0)
(0.573407 0.14525 0)
(0.578167 0.224083 0)
(0.565029 0.270162 0)
(0.458699 0.285626 0)
(0.177003 0.216121 0)
(-0.312456 0.104124 0)
(-0.463335 0.300282 0)
(-0.732137 0.389753 0)
(-0.832123 0.191877 0)
(-0.670076 -0.159659 0)
(-0.467979 -0.562735 0)
(0.0306276 -0.673618 0)
(-0.24126 0.0304083 0)
(-0.269489 0.166322 0)
(0.423946 -0.443882 0)
(0.578706 -0.525134 0)
(0.583944 -0.337158 0)
(0.518849 -0.0948426 0)
(0.460148 0.0552683 0)
(0.42488 0.136575 0)
(0.425105 0.209898 0)
(0.475567 0.272524 0)
(0.488164 0.344964 0)
(0.401681 0.375332 0)
(0.00266765 0.27761 0)
(-0.269665 0.34161 0)
(-0.261477 0.447027 0)
(-0.291184 0.194164 0)
(-0.130047 -0.189239 0)
(-0.137254 -0.596648 0)
(0.130758 -0.755662 0)
(-0.278117 0.141366 0)
(-0.16592 -0.00856993 0)
(0.392029 -0.665825 0)
(0.414651 -0.578228 0)
(0.566747 -0.292581 0)
(0.460207 -0.0510257 0)
(0.315457 0.0826005 0)
(0.2471 0.159486 0)
(0.225684 0.203603 0)
(0.268085 0.243944 0)
(0.301593 0.341061 0)
(0.429685 0.445123 0)
(0.33608 0.448962 0)
(0.0816518 0.399756 0)
(0.128004 0.390098 0)
(0.217951 0.132062 0)
(0.382827 -0.22766 0)
(0.396725 -0.573626 0)
(0.253182 -0.658806 0)
(-0.277891 0.229208 0)
(0.0603647 -0.188032 0)
(0.236297 -0.745224 0)
(0.176197 -0.655689 0)
(0.495879 -0.317985 0)
(0.515198 0.069974 0)
(0.184442 0.122446 0)
(0.0146824 0.130234 0)
(0.0446475 0.176607 0)
(0.037332 0.187759 0)
(0.072509 0.260015 0)
(0.268028 0.35704 0)
(0.45504 0.48143 0)
(0.412662 0.457129 0)
(0.471905 0.360134 0)
(0.615563 0.125634 0)
(0.730667 -0.172825 0)
(0.668341 -0.450193 0)
(0.354637 -0.462034 0)
(-0.285043 0.280245 0)
(0.169401 -0.281406 0)
(0.00832407 -0.729524 0)
(0.0096047 -0.767817 0)
(0.373122 -0.369435 0)
(0.586958 0.183392 0)
(0.209782 0.25293 0)
(-0.106822 0.219488 0)
(-0.417277 0.289913 0)
(-0.541363 0.305434 0)
(-0.357502 0.309576 0)
(-0.0297924 0.300278 0)
(0.348597 0.396124 0)
(0.506002 0.411283 0)
(0.629326 0.2982 0)
(0.760543 0.0609319 0)
(0.822784 -0.185207 0)
(0.667045 -0.331721 0)
(0.349873 -0.232349 0)
(-0.235752 0.403572 0)
(-0.00352874 -0.360878 0)
(-0.269874 -0.713238 0)
(-0.138704 -0.828883 0)
(0.0774642 -0.40112 0)
(0.219244 0.168389 0)
(0.0763706 0.451494 0)
(-0.440826 0.465027 0)
(-1.04466 0.421012 0)
(-1.19243 0.217463 0)
(-0.753614 -0.0889687 0)
(-0.305459 -0.179664 0)
(0.125361 0.238355 0)
(0.361245 0.295596 0)
(0.521794 0.21973 0)
(0.605733 0.0241898 0)
(0.591362 -0.164534 0)
(0.423597 -0.201306 0)
(0.257816 -0.0359049 0)
(0.0157204 0.294764 0)
(0.0117598 0.289744 0)
(-0.00389558 0.235595 0)
(-0.034856 0.176076 0)
(-0.129083 0.130776 0)
(-0.248192 0.11111 0)
(-0.331244 0.0796418 0)
(-0.367717 0.0306841 0)
(-0.366136 -0.0218569 0)
(-0.333385 -0.0677407 0)
(-0.286959 -0.0886986 0)
(-0.242322 -0.089844 0)
(-0.204855 -0.0828958 0)
(-0.174498 -0.0750515 0)
(-0.14817 -0.0750014 0)
(-0.11983 -0.0889071 0)
(-0.0880792 -0.10604 0)
(-0.063313 -0.110262 0)
(-0.0574957 -0.106046 0)
(-0.0609517 -0.112378 0)
(-0.0594284 -0.132167 0)
(-0.0319098 -0.147758 0)
(0.0513531 -0.112302 0)
(-0.0332002 0.26512 0)
(-0.0504364 0.28474 0)
(-0.142584 0.267464 0)
(-0.238868 0.252946 0)
(-0.348662 0.218517 0)
(-0.416606 0.165349 0)
(-0.442267 0.0948177 0)
(-0.445715 0.00177601 0)
(-0.433361 -0.0824547 0)
(-0.404074 -0.122608 0)
(-0.361009 -0.126192 0)
(-0.317911 -0.118303 0)
(-0.284218 -0.110425 0)
(-0.260184 -0.101872 0)
(-0.243292 -0.0986823 0)
(-0.222579 -0.110683 0)
(-0.177754 -0.121799 0)
(-0.120195 -0.111583 0)
(-0.0913616 -0.0936817 0)
(-0.0961756 -0.104334 0)
(-0.0797785 -0.156122 0)
(-0.00928278 -0.237394 0)
(0.0934241 -0.274225 0)
(-0.236668 0.342528 0)
(-0.325293 0.389276 0)
(-0.497264 0.373792 0)
(-0.643361 0.340415 0)
(-0.776225 0.300423 0)
(-0.893643 0.248181 0)
(-0.982945 0.179978 0)
(-1.01722 0.0989962 0)
(-1.00812 0.000570867 0)
(-0.97729 -0.101897 0)
(-0.880103 -0.152348 0)
(-0.783967 -0.152072 0)
(-0.751066 -0.134828 0)
(-0.773808 -0.111508 0)
(-0.807835 -0.0970385 0)
(-0.778867 -0.129536 0)
(-0.654514 -0.208758 0)
(-0.472114 -0.203512 0)
(-0.299625 -0.115663 0)
(-0.255586 -0.105941 0)
(-0.220765 -0.19948 0)
(-0.196026 -0.326127 0)
(-0.244095 -0.307048 0)
(-1.54818 1.03132 0)
(-2.0202 0.6371 0)
(-2.30729 0.593196 0)
(-2.51552 0.5161 0)
(-2.50388 0.430065 0)
(-2.38056 0.268839 0)
(-2.21692 0.091873 0)
(-2.02938 -0.0925879 0)
(-1.83413 -0.268355 0)
(-1.65455 -0.372776 0)
(-1.47105 -0.346365 0)
(-1.32425 -0.241327 0)
(-1.23419 -0.110833 0)
(-1.34197 -0.0186613 0)
(-1.48584 -0.0168345 0)
(-1.37163 -0.302675 0)
(-1.14988 -0.54031 0)
(-0.918397 -0.49723 0)
(-0.691288 -0.299257 0)
(-0.556238 -0.190309 0)
(-0.545428 -0.258899 0)
(-0.6514 -0.234145 0)
(-0.91904 -0.0350871 0)
(-1.2856 3.10682 0)
(-1.95044 0.946711 0)
(-2.03014 0.790772 0)
(-2.17774 0.425912 0)
(-2.17582 0.200915 0)
(-2.07813 0.0205643 0)
(-1.85546 -0.131438 0)
(-1.64267 -0.271308 0)
(-1.50437 -0.376686 0)
(-1.50849 -0.450624 0)
(-1.54795 -0.488022 0)
(-1.46909 -0.422322 0)
(-1.29904 -0.146199 0)
(-1.19798 0.159257 0)
(-1.30062 0.0108209 0)
(-1.24644 -0.562776 0)
(-1.1546 -0.705437 0)
(-1.04554 -0.618007 0)
(-0.944277 -0.431031 0)
(-0.867307 -0.253889 0)
(-0.898231 -0.152202 0)
(-1.07648 0.0016883 0)
(-1.33121 0.214556 0)
(-0.670833 4.32992 0)
(-1.26794 1.70928 0)
(-1.53855 1.18542 0)
(-1.64222 0.699382 0)
(-1.53953 0.354907 0)
(-1.35194 0.0113383 0)
(-1.05969 -0.27182 0)
(-0.908015 -0.369882 0)
(-0.898852 -0.290396 0)
(-1.09425 -0.263689 0)
(-1.22324 -0.41318 0)
(-1.23787 -0.49685 0)
(-1.28093 -0.435664 0)
(-1.23098 -0.20841 0)
(-1.20618 0.0298144 0)
(-1.20648 -0.591013 0)
(-1.19352 -0.787743 0)
(-1.16704 -0.668245 0)
(-1.11268 -0.451924 0)
(-1.09392 -0.209238 0)
(-1.15751 0.0200803 0)
(-1.30828 0.23627 0)
(-1.50668 0.385304 0)
(-0.339479 5.03143 0)
(-0.75485 2.31861 0)
(-1.17815 1.40576 0)
(-1.17856 0.599925 0)
(-1.07942 -0.01267 0)
(-0.999406 -0.373581 0)
(-1.02359 -0.517198 0)
(-1.10781 -0.459589 0)
(-1.10498 -0.292879 0)
(-0.98956 -0.147624 0)
(-0.944725 -0.196591 0)
(-1.04142 -0.388626 0)
(-1.13093 -0.183286 0)
(-1.15245 0.111131 0)
(-1.08234 0.329498 0)
(-1.05602 -0.382234 0)
(-1.27626 -0.765644 0)
(-1.31622 -0.660881 0)
(-1.27286 -0.470038 0)
(-1.24477 -0.206721 0)
(-1.26608 0.0772147 0)
(-1.37532 0.355336 0)
(-1.46323 0.471298 0)
(-0.0490171 5.34729 0)
(-0.318055 2.8592 0)
(-0.910541 1.43176 0)
(-0.741615 0.557807 0)
(-0.686162 0.0207174 0)
(-0.629893 -0.231529 0)
(-0.602444 -0.32654 0)
(-0.632174 -0.35392 0)
(-0.709814 -0.370265 0)
(-0.79182 -0.364849 0)
(-0.895439 -0.308314 0)
(-1.04005 -0.248877 0)
(-1.19322 -0.208428 0)
(-1.24159 -0.0730458 0)
(-1.11445 0.0127103 0)
(-1.12947 -0.309922 0)
(-1.41158 -0.657331 0)
(-1.51782 -0.714101 0)
(-1.41911 -0.468914 0)
(-1.29449 -0.203838 0)
(-1.21609 0.0911779 0)
(-1.15627 0.348743 0)
(-1.07933 0.403295 0)
(0.250783 5.05813 0)
(0.196622 3.6762 0)
(-0.501372 1.49521 0)
(-0.433266 0.469068 0)
(-0.450604 -0.0924351 0)
(-0.427293 -0.346925 0)
(-0.396485 -0.412648 0)
(-0.368945 -0.342139 0)
(-0.377468 -0.211221 0)
(-0.445136 -0.100503 0)
(-0.572558 -0.0822999 0)
(-0.721203 -0.113512 0)
(-0.919622 -0.093495 0)
(-1.08039 -0.0153756 0)
(-1.09503 -0.00607015 0)
(-1.17754 -0.169477 0)
(-1.49636 -0.463403 0)
(-1.74012 -0.7089 0)
(-1.61037 -0.630971 0)
(-1.35996 -0.34973 0)
(-1.15285 -0.0163624 0)
(-0.96423 0.232228 0)
(-0.796684 0.298019 0)
(0.483927 4.43508 0)
(0.677828 4.11116 0)
(0.198506 1.93625 0)
(-0.102159 0.519401 0)
(-0.244994 -0.0850506 0)
(-0.278292 -0.353677 0)
(-0.272435 -0.439679 0)
(-0.2498 -0.368922 0)
(-0.24432 -0.233878 0)
(-0.258301 -0.10319 0)
(-0.303969 0.0130225 0)
(-0.401466 0.114096 0)
(-0.550939 0.153558 0)
(-0.749734 0.140376 0)
(-0.914417 0.129103 0)
(-1.0658 0.0569511 0)
(-1.31729 -0.187708 0)
(-1.59889 -0.569678 0)
(-1.63121 -0.807189 0)
(-1.38635 -0.75108 0)
(-1.17296 -0.330201 0)
(-0.985058 0.0281521 0)
(-0.787577 0.143375 0)
(0.59496 3.61317 0)
(1.00573 4.15031 0)
(0.847448 2.49691 0)
(0.387113 0.854374 0)
(0.0591354 0.0318129 0)
(-0.0566023 -0.320623 0)
(-0.0943138 -0.446343 0)
(-0.10858 -0.375336 0)
(-0.125498 -0.218543 0)
(-0.152922 -0.0680726 0)
(-0.18603 0.0594863 0)
(-0.239352 0.176074 0)
(-0.311733 0.279897 0)
(-0.440457 0.336364 0)
(-0.635739 0.320422 0)
(-0.852859 0.208937 0)
(-1.05745 -0.0375899 0)
(-1.18806 -0.406553 0)
(-1.1659 -0.714891 0)
(-1.03269 -0.801803 0)
(-0.855344 -0.641175 0)
(-0.62379 -0.32238 0)
(-0.428082 -0.161392 0)
(0.553482 2.6689 0)
(1.14086 3.87422 0)
(1.2357 2.80429 0)
(0.884434 1.29854 0)
(0.487343 0.310151 0)
(0.278281 -0.198336 0)
(0.165088 -0.391065 0)
(0.0771892 -0.339607 0)
(0.0114062 -0.178242 0)
(-0.0465805 -0.0265976 0)
(-0.0941395 0.105821 0)
(-0.137868 0.223928 0)
(-0.170153 0.335036 0)
(-0.207029 0.450982 0)
(-0.296945 0.508594 0)
(-0.455867 0.406706 0)
(-0.65873 0.0891879 0)
(-0.816564 -0.375161 0)
(-0.886614 -0.738609 0)
(-0.884137 -0.877401 0)
(-0.830287 -0.748324 0)
(-0.655605 -0.527086 0)
(-0.38344 -0.370141 0)
(0.400301 1.81905 0)
(1.08976 3.38133 0)
(1.36572 2.86292 0)
(1.22228 1.67417 0)
(0.899333 0.64866 0)
(0.655432 0.0188111 0)
(0.460942 -0.255426 0)
(0.290226 -0.238764 0)
(0.164953 -0.0921862 0)
(0.0706119 0.0458688 0)
(-0.00057623 0.15918 0)
(-0.0480716 0.264769 0)
(-0.0725157 0.35927 0)
(-0.0716297 0.471816 0)
(-0.0661169 0.57605 0)
(-0.108098 0.553307 0)
(-0.245881 0.312142 0)
(-0.447228 -0.115787 0)
(-0.691643 -0.564189 0)
(-0.930323 -0.856042 0)
(-0.909423 -0.830826 0)
(-0.769117 -0.709074 0)
(-0.563272 -0.57231 0)
(0.200729 1.17704 0)
(0.888651 2.78693 0)
(1.28749 2.69948 0)
(1.32597 1.83055 0)
(1.15448 0.91063 0)
(0.937144 0.261377 0)
(0.699333 -0.048312 0)
(0.472923 -0.0693202 0)
(0.303099 0.0389435 0)
(0.18238 0.144523 0)
(0.094188 0.226706 0)
(0.0385398 0.30463 0)
(0.00911404 0.374746 0)
(0.00422561 0.456641 0)
(0.0326428 0.551773 0)
(0.0579152 0.583338 0)
(0.00701878 0.457337 0)
(-0.161603 0.134219 0)
(-0.435752 -0.291907 0)
(-0.737959 -0.665925 0)
(-0.904293 -0.887292 0)
(-0.805591 -0.891012 0)
(-0.638451 -0.775985 0)
(-0.00373385 0.793849 0)
(0.586955 2.217 0)
(1.03084 2.38264 0)
(1.21034 1.80144 0)
(1.18792 1.05451 0)
(1.0365 0.473068 0)
(0.805843 0.18344 0)
(0.571885 0.135138 0)
(0.394284 0.192743 0)
(0.269748 0.255714 0)
(0.177908 0.303933 0)
(0.116336 0.350624 0)
(0.0801173 0.396474 0)
(0.0593848 0.45026 0)
(0.0672899 0.516612 0)
(0.0934635 0.559471 0)
(0.091517 0.518745 0)
(-0.00996413 0.323379 0)
(-0.249757 -0.0287564 0)
(-0.511269 -0.402664 0)
(-0.689318 -0.738145 0)
(-0.659139 -1.0235 0)
(-0.535809 -1.01794 0)
(-0.146315 0.661522 0)
(0.284883 1.76469 0)
(0.691028 2.0053 0)
(0.95455 1.64282 0)
(1.04149 1.08757 0)
(0.962346 0.634439 0)
(0.779388 0.395287 0)
(0.584746 0.327997 0)
(0.433255 0.338106 0)
(0.324004 0.361489 0)
(0.240827 0.380795 0)
(0.179663 0.401997 0)
(0.138014 0.428773 0)
(0.106363 0.463956 0)
(0.0905601 0.508348 0)
(0.0914219 0.544247 0)
(0.0910473 0.548684 0)
(0.0362914 0.457333 0)
(-0.160538 0.175645 0)
(-0.379311 -0.191632 0)
(-0.502117 -0.632065 0)
(-0.510458 -0.972708 0)
(-0.513661 -0.970529 0)
(-0.173872 0.683404 0)
(0.0633988 1.41725 0)
(0.399331 1.64019 0)
(0.679481 1.42779 0)
(0.814542 1.05495 0)
(0.79204 0.738674 0)
(0.67461 0.555249 0)
(0.541048 0.477564 0)
(0.431312 0.453934 0)
(0.347221 0.449095 0)
(0.279726 0.448714 0)
(0.225049 0.453336 0)
(0.18209 0.467439 0)
(0.146124 0.492132 0)
(0.118173 0.524635 0)
(0.0996663 0.553282 0)
(0.0844407 0.577092 0)
(0.0536402 0.561467 0)
(-0.0949053 0.35079 0)
(-0.273559 -0.0316222 0)
(-0.391874 -0.6162 0)
(-0.452447 -0.920792 0)
(-0.516433 -0.936729 0)
(-0.127754 0.764474 0)
(-0.0282844 1.18997 0)
(0.22227 1.33967 0)
(0.462262 1.21848 0)
(0.595862 0.991508 0)
(0.609551 0.787894 0)
(0.551964 0.651829 0)
(0.475742 0.574264 0)
(0.406207 0.534273 0)
(0.347742 0.514315 0)
(0.297379 0.503425 0)
(0.252641 0.49965 0)
(0.213135 0.506615 0)
(0.178239 0.525237 0)
(0.1483 0.551621 0)
(0.123594 0.5764 0)
(0.0989431 0.604605 0)
(0.0818741 0.63261 0)
(-0.014675 0.497817 0)
(-0.158612 0.121061 0)
(-0.330329 -0.513524 0)
(-0.440659 -0.850675 0)
(-0.534559 -0.895097 0)
(-0.0628624 0.838035 0)
(-0.0215368 1.06568 0)
(0.145245 1.12415 0)
(0.321531 1.05066 0)
(0.430921 0.921638 0)
(0.462852 0.79536 0)
(0.446675 0.696186 0)
(0.411365 0.627409 0)
(0.372177 0.584391 0)
(0.334771 0.559162 0)
(0.299692 0.544397 0)
(0.265807 0.5378 0)
(0.233191 0.541506 0)
(0.203193 0.556187 0)
(0.1767 0.578663 0)
(0.153839 0.601734 0)
(0.127669 0.627368 0)
(0.115172 0.671469 0)
(0.0655259 0.612193 0)
(-0.0764711 0.27263 0)
(-0.258631 -0.27146 0)
(-0.44188 -0.739254 0)
(-0.544101 -0.80215 0)
(-0.0135483 0.860171 0)
(0.0177207 0.996138 0)
(0.122967 0.982486 0)
(0.242121 0.930692 0)
(0.324034 0.858155 0)
(0.361303 0.779553 0)
(0.367634 0.708109 0)
(0.356661 0.651906 0)
(0.337587 0.612834 0)
(0.31578 0.587902 0)
(0.293133 0.573025 0)
(0.269547 0.566505 0)
(0.245437 0.5692 0)
(0.222525 0.58134 0)
(0.201805 0.600987 0)
(0.183509 0.623722 0)
(0.160776 0.646867 0)
(0.143511 0.692523 0)
(0.125511 0.701261 0)
(-0.0322474 0.444276 0)
(-0.2309 -0.0801429 0)
(-0.441017 -0.613483 0)
(-0.54148 -0.676309 0)
(0.0100937 0.840531 0)
(0.0472309 0.942298 0)
(0.119462 0.889874 0)
(0.199106 0.84823 0)
(0.258805 0.805565 0)
(0.294519 0.754963 0)
(0.310657 0.703495 0)
(0.312818 0.659544 0)
(0.306509 0.626721 0)
(0.295924 0.604524 0)
(0.283152 0.591204 0)
(0.268781 0.585825 0)
(0.253453 0.588547 0)
(0.23856 0.599328 0)
(0.224813 0.617313 0)
(0.212112 0.640866 0)
(0.196167 0.665364 0)
(0.174046 0.708991 0)
(0.171253 0.772061 0)
(0.0355359 0.631777 0)
(-0.19296 0.117769 0)
(-0.42243 -0.474844 0)
(-0.528312 -0.549102 0)
(0.0160097 0.80617 0)
(0.0581859 0.889606 0)
(0.116276 0.824577 0)
(0.172478 0.790095 0)
(0.217322 0.76319 0)
(0.249482 0.728819 0)
(0.269206 0.691186 0)
(0.278475 0.657351 0)
(0.280471 0.630741 0)
(0.278137 0.611954 0)
(0.273346 0.600632 0)
(0.267068 0.596472 0)
(0.260097 0.599469 0)
(0.253423 0.609629 0)
(0.247542 0.626896 0)
(0.24195 0.651646 0)
(0.235349 0.680629 0)
(0.217388 0.723444 0)
(0.220743 0.818279 0)
(0.145861 0.807975 0)
(-0.095425 0.384478 0)
(-0.373711 -0.310931 0)
(-0.484583 -0.417222 0)
(0.015431 0.770328 0)
(0.0579949 0.838359 0)
(0.108903 0.773559 0)
(0.152169 0.746118 0)
(0.188273 0.728086 0)
(0.217332 0.703323 0)
(0.238311 0.675137 0)
(0.251764 0.64904 0)
(0.25949 0.627731 0)
(0.263481 0.612158 0)
(0.265309 0.602646 0)
(0.266099 0.599332 0)
(0.266749 0.602344 0)
(0.268065 0.611921 0)
(0.27059 0.62857 0)
(0.273974 0.653666 0)
(0.278748 0.68693 0)
(0.27581 0.730856 0)
(0.285902 0.832095 0)
(0.284282 0.930352 0)
(0.101066 0.690628 0)
(-0.280751 -0.131476 0)
(-0.394492 -0.286034 0)
(0.0141373 0.736643 0)
(0.0541236 0.790657 0)
(0.0991872 0.730744 0)
(0.135149 0.710029 0)
(0.16633 0.69744 0)
(0.193232 0.678683 0)
(0.214714 0.656998 0)
(0.230866 0.636594 0)
(0.242744 0.619453 0)
(0.251716 0.606503 0)
(0.259077 0.598327 0)
(0.26596 0.595313 0)
(0.273343 0.597778 0)
(0.282091 0.606173 0)
(0.293013 0.62132 0)
(0.306579 0.644821 0)
(0.32423 0.678684 0)
(0.34304 0.723081 0)
(0.37189 0.810173 0)
(0.429805 0.959107 0)
(0.446774 0.963187 0)
(0.0225182 0.15468 0)
(-0.197411 -0.136595 0)
(0.0134068 0.705355 0)
(0.049863 0.747717 0)
(0.0894003 0.693631 0)
(0.120871 0.678537 0)
(0.149117 0.669487 0)
(0.174538 0.65472 0)
(0.196229 0.637551 0)
(0.21419 0.621221 0)
(0.229112 0.60714 0)
(0.241984 0.596084 0)
(0.253872 0.588666 0)
(0.265847 0.58536 0)
(0.278944 0.586581 0)
(0.294205 0.592842 0)
(0.312793 0.604963 0)
(0.336145 0.624279 0)
(0.366617 0.653126 0)
(0.406091 0.692359 0)
(0.463679 0.753918 0)
(0.554964 0.872162 0)
(0.733086 1.02662 0)
(0.609666 0.581476 0)
(0.298855 0.0884543 0)
(0.0130118 0.676079 0)
(0.0459773 0.709619 0)
(0.0806202 0.660895 0)
(0.109053 0.650012 0)
(0.135307 0.643325 0)
(0.159603 0.631318 0)
(0.181306 0.61729 0)
(0.200443 0.603782 0)
(0.217535 0.591788 0)
(0.233342 0.581905 0)
(0.248755 0.574663 0)
(0.264754 0.570504 0)
(0.282393 0.569805 0)
(0.302851 0.572962 0)
(0.327552 0.580503 0)
(0.358465 0.593153 0)
(0.398686 0.612098 0)
(0.451299 0.637975 0)
(0.528068 0.671759 0)
(0.629024 0.71714 0)
(0.841258 0.844669 0)
(0.982465 0.716453 0)
(0.938848 0.283561 0)
(0.0126526 0.648567 0)
(0.0424832 0.675781 0)
(0.0730876 0.63157 0)
(0.0992691 0.623632 0)
(0.123961 0.618532 0)
(0.147291 0.608461 0)
(0.168827 0.596594 0)
(0.188643 0.584965 0)
(0.207172 0.574267 0)
(0.225033 0.564928 0)
(0.242981 0.557357 0)
(0.261894 0.551886 0)
(0.28278 0.548757 0)
(0.306819 0.548138 0)
(0.335463 0.550133 0)
(0.370655 0.554726 0)
(0.415272 0.561761 0)
(0.472139 0.570137 0)
(0.54986 0.578393 0)
(0.644471 0.570538 0)
(0.804283 0.590884 0)
(1.002 0.5372 0)
(1.11549 0.31208 0)
(0.0122126 0.62273 0)
(0.0393145 0.645484 0)
(0.0666879 0.604943 0)
(0.0910489 0.598973 0)
(0.114376 0.594921 0)
(0.136788 0.586196 0)
(0.157982 0.575783 0)
(0.178065 0.56534 0)
(0.197414 0.555339 0)
(0.216546 0.546063 0)
(0.236103 0.537789 0)
(0.25685 0.530717 0)
(0.279682 0.524927 0)
(0.305653 0.520348 0)
(0.33601 0.516718 0)
(0.372358 0.513458 0)
(0.416606 0.509587 0)
(0.471166 0.502887 0)
(0.539325 0.491102 0)
(0.620547 0.461778 0)
(0.723201 0.418651 0)
(0.861086 0.341335 0)
(0.983327 0.203536 0)
(0.0116833 0.598523 0)
(0.036424 0.618094 0)
(0.0612035 0.58052 0)
(0.0839797 0.575814 0)
(0.10603 0.572423 0)
(0.127509 0.564607 0)
(0.148189 0.555138 0)
(0.168188 0.545388 0)
(0.187839 0.535662 0)
(0.207574 0.526123 0)
(0.22793 0.516931 0)
(0.249548 0.508167 0)
(0.273176 0.499771 0)
(0.29967 0.491507 0)
(0.329976 0.482898 0)
(0.365275 0.473127 0)
(0.406596 0.46091 0)
(0.455636 0.444203 0)
(0.512811 0.420093 0)
(0.578958 0.383565 0)
(0.651022 0.328223 0)
(0.729249 0.245429 0)
(0.806106 0.138083 0)
(0.0110902 0.575896 0)
(0.0337716 0.593117 0)
(0.0564204 0.557968 0)
(0.0777406 0.554043 0)
(0.0985472 0.551027 0)
(0.119046 0.543799 0)
(0.139042 0.534911 0)
(0.158658 0.525513 0)
(0.178181 0.515785 0)
(0.197965 0.505797 0)
(0.218449 0.495616 0)
(0.240153 0.485231 0)
(0.263664 0.474494 0)
(0.289635 0.463082 0)
(0.318734 0.450445 0)
(0.351741 0.435757 0)
(0.389189 0.417754 0)
(0.431905 0.394906 0)
(0.479608 0.364537 0)
(0.531992 0.324425 0)
(0.58681 0.270691 0)
(0.636716 0.19734 0)
(0.679836 0.109427 0)
(0.010462 0.554788 0)
(0.0313227 0.570193 0)
(0.05216 0.537065 0)
(0.0720989 0.533603 0)
(0.0916663 0.53076 0)
(0.11112 0.523884 0)
(0.130278 0.515325 0)
(0.149255 0.506053 0)
(0.168294 0.49616 0)
(0.187681 0.485644 0)
(0.207763 0.474506 0)
(0.228943 0.462674 0)
(0.251667 0.449954 0)
(0.276402 0.435997 0)
(0.303594 0.420259 0)
(0.333697 0.401988 0)
(0.366963 0.380092 0)
(0.403565 0.35336 0)
(0.443079 0.31986 0)
(0.484328 0.277937 0)
(0.525918 0.225915 0)
(0.562199 0.160752 0)
(0.590529 0.0857364 0)
(0.00982673 0.535124 0)
(0.0290564 0.54908 0)
(0.0482814 0.517655 0)
(0.0668908 0.514467 0)
(0.0852106 0.51166 0)
(0.103552 0.504971 0)
(0.121736 0.496573 0)
(0.139862 0.487292 0)
(0.158134 0.477152 0)
(0.176771 0.466105 0)
(0.196042 0.454106 0)
(0.216248 0.44105 0)
(0.237711 0.426723 0)
(0.260744 0.410786 0)
(0.285622 0.39274 0)
(0.312561 0.371933 0)
(0.341615 0.347481 0)
(0.372621 0.318406 0)
(0.40506 0.283445 0)
(0.437708 0.241414 0)
(0.46927 0.191542 0)
(0.496529 0.132743 0)
(0.517595 0.0673019 0)
(0.00921436 0.516814 0)
(0.0269672 0.529624 0)
(0.0446753 0.499634 0)
(0.0619996 0.496624 0)
(0.0790587 0.493764 0)
(0.0962297 0.487155 0)
(0.113328 0.478816 0)
(0.130437 0.469453 0)
(0.14772 0.459045 0)
(0.165343 0.447514 0)
(0.183503 0.434788 0)
(0.202416 0.420744 0)
(0.222301 0.405172 0)
(0.243354 0.38776 0)
(0.265718 0.368078 0)
(0.289458 0.345579 0)
(0.314496 0.319587 0)
(0.340545 0.289357 0)
(0.36706 0.254088 0)
(0.393051 0.213068 0)
(0.417374 0.16597 0)
(0.438005 0.112514 0)
(0.453814 0.0543538 0)
(0.00865464 0.499746 0)
(0.0250536 0.511737 0)
(0.0412614 0.482946 0)
(0.0573368 0.480066 0)
(0.0731186 0.477105 0)
(0.089076 0.470513 0)
(0.105006 0.462176 0)
(0.120974 0.452706 0)
(0.137111 0.44205 0)
(0.153533 0.430112 0)
(0.170379 0.416808 0)
(0.187798 0.40201 0)
(0.205924 0.385525 0)
(0.224866 0.367078 0)
(0.244679 0.346313 0)
(0.265336 0.322793 0)
(0.28669 0.296011 0)
(0.308429 0.265432 0)
(0.330049 0.230544 0)
(0.35077 0.19094 0)
(0.369689 0.146511 0)
(0.38542 0.0972568 0)
(0.397338 0.0444184 0)
(0.00816758 0.483805 0)
(0.023301 0.495366 0)
(0.0379841 0.467581 0)
(0.0528284 0.464796 0)
(0.0673111 0.461704 0)
(0.0820275 0.455096 0)
(0.0967305 0.446739 0)
(0.111475 0.437165 0)
(0.126362 0.426305 0)
(0.141468 0.414052 0)
(0.156885 0.400318 0)
(0.172705 0.384984 0)
(0.189002 0.367875 0)
(0.205822 0.34876 0)
(0.223159 0.32735 0)
(0.240938 0.303304 0)
(0.258986 0.276244 0)
(0.277005 0.245791 0)
(0.294561 0.21161 0)
(0.311052 0.17347 0)
(0.325811 0.131372 0)
(0.337917 0.0854333 0)
(0.347064 0.0366274 0)
(0.00775512 0.46889 0)
(0.0216734 0.480465 0)
(0.0348014 0.453563 0)
(0.0484044 0.450828 0)
(0.0615582 0.447579 0)
(0.0750163 0.440942 0)
(0.0884489 0.43256 0)
(0.101915 0.422903 0)
(0.115492 0.41189 0)
(0.129218 0.399412 0)
(0.143153 0.385387 0)
(0.157344 0.369705 0)
(0.171819 0.352215 0)
(0.186579 0.332725 0)
(0.201581 0.311002 0)
(0.216725 0.286783 0)
(0.231833 0.259786 0)
(0.246642 0.229738 0)
(0.260794 0.19642 0)
(0.273834 0.159704 0)
(0.285287 0.119637 0)
(0.294543 0.076362 0)
(0.301458 0.0306162 0)
(0.00740068 0.454939 0)
(0.0201187 0.466999 0)
(0.0316744 0.440943 0)
(0.043995 0.438192 0)
(0.0557801 0.434753 0)
(0.0679619 0.428085 0)
(0.0800827 0.419683 0)
(0.0922284 0.409968 0)
(0.104451 0.398852 0)
(0.116762 0.386232 0)
(0.129194 0.372034 0)
(0.141758 0.356159 0)
(0.154449 0.338482 0)
(0.167237 0.318845 0)
(0.180052 0.297061 0)
(0.192779 0.272926 0)
(0.20525 0.246226 0)
(0.21723 0.216765 0)
(0.228428 0.184392 0)
(0.238492 0.149036 0)
(0.247073 0.110747 0)
(0.25375 0.0696462 0)
(0.258466 0.0262901 0)
(0.00706875 0.441917 0)
(0.0185671 0.4549 0)
(0.0285528 0.429773 0)
(0.0395272 0.426923 0)
(0.0498901 0.423248 0)
(0.060766 0.416548 0)
(0.0715206 0.408136 0)
(0.0822991 0.398389 0)
(0.0931221 0.387214 0)
(0.103979 0.374519 0)
(0.114883 0.360244 0)
(0.125817 0.344303 0)
(0.13675 0.326593 0)
(0.147625 0.306987 0)
(0.158354 0.285337 0)
(0.168811 0.261482 0)
(0.17883 0.235258 0)
(0.188197 0.20652 0)
(0.196659 0.175162 0)
(0.203929 0.141136 0)
(0.209737 0.104474 0)
(0.213777 0.0652705 0)
(0.216071 0.0239512 0)
(0.00672905 0.429939 0)
(0.0169807 0.444216 0)
(0.0254168 0.420163 0)
(0.0349665 0.417117 0)
(0.0438445 0.413158 0)
(0.0533756 0.406435 0)
(0.0626991 0.398027 0)
(0.0720606 0.388275 0)
(0.0814307 0.377081 0)
(0.0907871 0.364372 0)
(0.100128 0.350101 0)
(0.109411 0.3342 0)
(0.118581 0.316586 0)
(0.127562 0.29716 0)
(0.136247 0.275805 0)
(0.1445 0.252395 0)
(0.152151 0.226805 0)
(0.158996 0.198926 0)
(0.164801 0.168679 0)
(0.169324 0.13602 0)
(0.172353 0.10095 0)
(0.173689 0.0635161 0)
(0.173456 0.0240115 0)
(0.00629029 0.41873 0)
(0.015182 0.434593 0)
(0.0220954 0.412014 0)
(0.0301318 0.408653 0)
(0.0374331 0.404361 0)
(0.0455373 0.397604 0)
(0.0533226 0.389205 0)
(0.0611843 0.379464 0)
(0.06901 0.368279 0)
(0.076784 0.355605 0)
(0.0844882 0.341409 0)
(0.0920577 0.325637 0)
(0.0994232 0.308231 0)
(0.10649 0.289116 0)
(0.11314 0.268201 0)
(0.119232 0.245389 0)
(0.124596 0.220586 0)
(0.129036 0.193709 0)
(0.13234 0.16469 0)
(0.134312 0.133466 0)
(0.134801 0.0999789 0)
(0.133724 0.0641796 0)
(0.131338 0.0261474 0)
(0.00595692 0.40997 0)
(0.0136818 0.427396 0)
(0.0191808 0.406096 0)
(0.025752 0.402363 0)
(0.0316011 0.397791 0)
(0.0384145 0.391046 0)
(0.0447854 0.382674 0)
(0.0512915 0.372985 0)
(0.0577117 0.361844 0)
(0.0640553 0.349257 0)
(0.0702828 0.335188 0)
(0.0763113 0.319608 0)
(0.0820601 0.302478 0)
(0.0874231 0.283743 0)
(0.0922756 0.263332 0)
(0.0964715 0.241173 0)
(0.0998386 0.217196 0)