/*--------------------------------*- C++ -*----------------------------------*\
| =========                 |                                                 |
| \\      /  F ield         | OpenFOAM: The Open Source CFD Toolbox           |
|  \\    /   O peration     | Version:  2206                                  |
|   \\  /    A nd           | Website:  www.openfoam.com                      |
|    \\/     M anipulation  |                                                 |
\*---------------------------------------------------------------------------*/
FoamFile
{
    version     2.0;
    format      ascii;
    arch        "LSB;label=32;scalar=64";
    class       surfaceScalarField;
    location    "0.9";
    object      alphaPhi0.water;
}
// * * * * * * * * * * * * * * * * * * * * * * * * * * * * * * * * * * * * * //

dimensions      [0 3 -1 0 0 0 0];

oriented        oriented;

internalField   nonuniform List<scalar> 
4432
(
-6.21172e-07
6.21171e-07
-6.38919e-07
1.77457e-08
2.67914e-08
-6.65713e-07
1.05759e-06
-1.0308e-06
2.21263e-06
-1.15504e-06
3.2229e-06
-1.01027e-06
3.95165e-06
-7.28752e-07
4.36949e-06
-4.17841e-07
4.49685e-06
-1.27358e-07
4.38255e-06
1.14297e-07
4.08937e-06
2.93183e-07
3.69395e-06
3.9541e-07
3.23871e-06
4.55248e-07
2.71844e-06
5.2026e-07
2.09131e-06
6.27133e-07
1.30223e-06
7.89085e-07
3.06479e-07
9.95747e-07
-9.50666e-07
1.25715e-06
-2.26619e-06
1.31553e-06
-3.13459e-06
8.68396e-07
-3.0828e-06
-5.17897e-08
-1.90518e-06
-1.17761e-06
-1.90518e-06
-7.39687e-07
1.36086e-06
-7.0138e-07
-2.05647e-08
-5.04407e-08
-1.31665e-06
9.59369e-07
-2.04061e-06
2.13018e-06
-2.32585e-06
3.17454e-06
-2.05463e-06
3.91966e-06
-1.47387e-06
4.36452e-06
-8.62707e-07
4.57335e-06
-3.36185e-07
4.60605e-06
8.15974e-08
4.50923e-06
3.90003e-07
4.31384e-06
5.90792e-07
4.05673e-06
7.1236e-07
3.76437e-06
8.12625e-07
3.43441e-06
9.57088e-07
3.02692e-06
1.19658e-06
2.48079e-06
1.54188e-06
1.80003e-06
1.9379e-06
1.05341e-06
2.06215e-06
3.32701e-07
1.58911e-06
-4.26934e-07
7.07846e-07
-6.1442e-07
-9.90127e-07
-2.5196e-06
-7.79633e-07
2.14049e-06
-8.6585e-07
6.56497e-08
-5.28406e-07
-1.6541e-06
2.05621e-07
-2.77464e-06
1.36882e-06
-3.48905e-06
2.59322e-06
-3.27904e-06
3.50075e-06
-2.3814e-06
4.02656e-06
-1.38851e-06
4.27513e-06
-5.84761e-07
4.34936e-06
7.37207e-09
4.28703e-06
4.52326e-07
4.14343e-06
7.344e-07
3.95912e-06
8.96666e-07
3.77415e-06
9.97594e-07
3.6248e-06
1.10644e-06
3.53978e-06
1.28161e-06
3.52576e-06
1.5559e-06
3.56503e-06
1.89863e-06
3.48495e-06
2.14223e-06
3.09742e-06
1.97664e-06
2.49385e-06
1.31142e-06
1.33323e-06
1.70491e-07
-1.18637e-06
-9.23791e-07
3.06428e-06
-1.46389e-06
6.05747e-07
-1.87627e-06
-1.24173e-06
-1.62985e-06
-3.02106e-06
-5.79931e-07
-4.53897e-06
9.262e-07
-4.78517e-06
2.30457e-06
-3.75977e-06
3.20079e-06
-2.28473e-06
3.68734e-06
-1.07131e-06
3.91466e-06
-2.19955e-07
3.99358e-06
3.73409e-07
3.96985e-06
7.58124e-07
3.8865e-06
9.8002e-07
3.78188e-06
1.10221e-06
3.6926e-06
1.19572e-06
3.65511e-06
1.31909e-06
3.70682e-06
1.50419e-06
3.85678e-06
1.74867e-06
4.00248e-06
1.99654e-06
3.88354e-06
2.09558e-06
3.23141e-06
1.96354e-06
1.83945e-06
1.56246e-06
6.53076e-07
-1.20912e-06
4.27339e-06
-2.47091e-06
1.86754e-06
-3.59636e-06
-1.16276e-07
-3.77707e-06
-2.84034e-06
-3.04288e-06
-5.27316e-06
-1.59643e-06
-6.23163e-06
2.11529e-07
-5.56773e-06
1.71718e-06
-3.79039e-06
2.65781e-06
-2.01194e-06
3.19606e-06
-7.58204e-07
3.50934e-06
6.01358e-08
3.68139e-06
5.8607e-07
3.7639e-06
8.97509e-07
3.79106e-06
1.07506e-06
3.79175e-06
1.19503e-06
3.78929e-06
1.32155e-06
3.80101e-06
1.49247e-06
3.83366e-06
1.71602e-06
3.85343e-06
1.97676e-06
3.71294e-06
2.23608e-06
3.16503e-06
2.51145e-06
1.94549e-06
2.782e-06
2.59856e-06
-1.39444e-06
5.66784e-06
-3.03809e-06
3.51118e-06
-4.29727e-06
1.1429e-06
-4.71349e-06
-2.42412e-06
-4.47428e-06
-5.51236e-06
-3.5669e-06
-7.13901e-06
-1.97017e-06
-7.16446e-06
-1.39779e-07
-5.62078e-06
1.28305e-06
-3.43477e-06
2.20559e-06
-1.68074e-06
2.80927e-06
-5.43543e-07
3.22802e-06
1.67316e-07
3.52134e-06
6.04198e-07
3.72574e-06
8.70654e-07
3.86508e-06
1.05569e-06
3.95837e-06
1.22826e-06
4.0117e-06
1.43915e-06
4.00975e-06
1.71797e-06
3.90879e-06
2.07772e-06
3.62571e-06
2.51916e-06
3.02559e-06
3.11157e-06
1.87526e-06
3.93233e-06
4.47382e-06
-9.92122e-07
6.65996e-06
-2.20402e-06
4.72308e-06
-3.03445e-06
1.97333e-06
-3.28608e-06
-2.17249e-06
-3.41966e-06
-5.37879e-06
-3.4063e-06
-7.15237e-06
-2.8034e-06
-7.76736e-06
-1.50787e-06
-6.91631e-06
-9.09375e-08
-4.8517e-06
1.08126e-06
-2.85294e-06
1.95803e-06
-1.42031e-06
2.62409e-06
-4.98735e-07
3.14977e-06
7.85121e-08
3.56233e-06
4.58093e-07
3.88265e-06
7.35375e-07
4.12499e-06
9.85922e-07
4.29382e-06
1.27031e-06
4.37529e-06
1.6365e-06
4.32192e-06
2.13109e-06
4.08073e-06
2.76035e-06
3.53563e-06
3.65667e-06
2.57755e-06
4.89042e-06
7.05137e-06
-3.77303e-08
6.69769e-06
-3.88737e-07
5.07408e-06
-1.40929e-07
1.72552e-06
3.70099e-07
-2.68352e-06
1.97065e-07
-5.20576e-06
-6.65232e-07
-6.29009e-06
-1.41183e-06
-7.02079e-06
-1.38948e-06
-6.93866e-06
-7.15248e-07
-5.52592e-06
2.20977e-07
-3.78916e-06
1.16543e-06
-2.36477e-06
2.01046e-06
-1.34376e-06
2.74138e-06
-6.52411e-07
3.34985e-06
-1.50383e-07
3.85299e-06
2.32243e-07
4.27089e-06
5.68015e-07
4.60413e-06
9.37073e-07
4.83665e-06
1.40399e-06
4.90505e-06
2.06269e-06
4.74935e-06
2.91604e-06
4.13433e-06
4.27169e-06
2.9389e-06
6.08585e-06
9.99026e-06
4.10619e-06
-4.73745e-06
-1.8274e-06
4.002e-06
-1.99664e-05
9.79556e-06
-4.34456e-05
6.54738e-06
-5.87564e-05
8.72174e-06
-7.95471e-05
1.83626e-05
-0.000101561
2.61201e-05
-0.000105951
3.89058e-06
-8.85148e-05
-1.82028e-05
-6.40012e-05
-2.55969e-05
-4.8937e-05
-1.89462e-05
-4.7625e-05
-1.30855e-06
-6.42931e-05
1.66686e-05
-8.22652e-05
1.79769e-05
-8.30573e-05
8.17067e-07
-6.98947e-05
-1.31438e-05
-5.09095e-05
-1.89857e-05
-2.29159e-05
-2.79934e-05
-2.29157e-05
-5.33558e-06
9.21292e-07
-5.46155e-06
7.47322e-06
-1.86342e-06
5.14568e-06
-1.7154e-05
7.57881e-06
-8.60564e-05
3.17062e-05
-0.000113214
4.56044e-05
-0.000125093
3.79385e-05
-0.000120595
-6.8405e-07
-0.000109066
-2.96738e-05
-9.68979e-05
-3.77065e-05
-9.12781e-05
-2.4617e-05
-9.44971e-05
1.79909e-06
-9.70804e-05
1.92572e-05
-8.90068e-05
1.06409e-05
-7.28467e-05
-1.00905e-05
-5.99184e-05
-2.28418e-05
-4.34844e-05
-3.51205e-05
-2.06452e-05
-5.08322e-05
-4.35607e-05
-5.28945e-06
6.79901e-06
6.82656e-07
-5.85664e-07
8.47905e-06
-4.13505e-06
1.76614e-05
2.18313e-05
-2.86233e-05
5.66927e-05
-0.000100169
8.5554e-05
-0.000107758
4.56035e-05
-0.000101157
-7.28423e-06
-9.62608e-05
-3.45214e-05
-9.31906e-05
-4.0726e-05
-9.23213e-05
-2.5428e-05
-9.27311e-05
2.18133e-06
-7.80324e-05
1.1478e-05
-5.51974e-05
-7.21376e-07
-4.36303e-05
-2.18305e-05
-3.22493e-05
-3.43628e-05
-2.45652e-05
-4.01081e-05
-1.21773e-05
-6.32181e-05
-5.57376e-05
-4.36905e-06
1.249e-05
3.93471e-06
-1.13075e-05
1.38693e-05
-1.79909e-05
2.88549e-05
2.82724e-05
1.10906e-05
8.76448e-05
-3.37609e-05
8.19084e-05
-4.79169e-05
5.52405e-05
-4.58793e-05
-9.82073e-06
-5.64448e-05
-2.5949e-05
-6.90419e-05
-2.80533e-05
-7.43048e-05
-1.99791e-05
-7.03364e-05
1.12725e-06
-4.84185e-05
3.62127e-06
-3.699e-05
-1.23228e-05
-2.40605e-05
-3.48739e-05
-1.18321e-05
-4.67181e-05
-3.77144e-06
-4.83077e-05
-3.78689e-09
-6.65412e-05
-5.57394e-05
-4.52116e-06
1.48364e-05
-6.53229e-06
-1.35867e-05
-7.03485e-06
-3.17361e-05
8.14654e-06
1.58351e-05
3.52895e-05
7.36882e-05
2.83614e-05
7.42374e-05
2.38235e-05
4.02161e-05
1.30664e-05
-1.68036e-06
8.51193e-07
-3.64367e-06
-3.42422e-05
7.07503e-06
-5.13564e-05
-2.3859e-06
-5.13953e-05
7.96418e-07
-3.20338e-05
-3.26611e-06
-1.88186e-05
-2.55235e-05
-4.91824e-06
-4.89472e-05
5.44382e-06
-5.72199e-05
1.04724e-05
-5.34898e-05
9.6499e-06
-5.87821e-05
-4.60729e-05
-1.83388e-05
3.30078e-05
-4.16322e-05
-1.87889e-05
-3.69804e-05
-3.36441e-05
-1.33243e-05
-4.51863e-06
1.42971e-05
4.14417e-05
3.05412e-05
5.74268e-05
2.79199e-05
2.70493e-05
2.19925e-05
4.35841e-06
1.15006e-05
7.02017e-06
-4.3948e-06
2.24388e-05
-2.6881e-05
2.06471e-05
-2.40258e-05
3.40765e-06
-1.61332e-05
-1.45527e-05
-2.84897e-06
-4.2083e-05
8.63287e-06
-6.28751e-05
1.60538e-05
-6.48427e-05
1.85087e-05
-5.60958e-05
1.5026e-05
-5.21207e-05
-3.09166e-05
-3.35887e-05
6.43826e-05
-6.54288e-05
-8.81127e-06
-6.63912e-05
-3.10123e-05
-2.94006e-05
-2.40015e-05
-1.27252e-06
1.29808e-05
2.03882e-05
3.59948e-05
2.49848e-05
2.23687e-05
2.04149e-05
8.82543e-06
1.10711e-05
1.62584e-05
7.72348e-06
2.33992e-05
-8.17431e-06
3.72188e-05
-1.12765e-05
6.5588e-06
-2.37561e-06
-2.33381e-05
8.00168e-06
-5.67116e-05
1.36681e-05
-8.23017e-05
1.60543e-05
-6.84676e-05
1.95851e-05
-5.96908e-05
1.49914e-05
-4.42779e-05
-1.56826e-05
-4.83859e-05
0.000109235
-8.61234e-05
1.33321e-05
-9.53374e-05
-2.09137e-05
-8.22374e-05
-3.56341e-05
-2.88766e-05
-1.09821e-05
-2.6792e-06
1.40447e-05
5.77647e-06
1.38101e-05
4.0855e-06
1.0419e-05
2.51582e-06
1.77252e-05
4.78301e-06
3.40641e-05
2.64847e-06
4.04996e-05
1.97242e-06
7.29099e-06
4.30882e-06
-2.56183e-05
3.80517e-06
-5.58342e-05
4.23318e-06
-8.2161e-05
7.9844e-06
-8.50727e-05
1.48439e-05
-6.3467e-05
1.02533e-05
-3.44488e-05
-4.70768e-06
5.55707e-06
1.14062e-06
9.21503e-06
1.41611e-06
1.17702e-05
-8.29645e-07
1.30181e-05
-3.931e-06
1.24303e-05
-4.61756e-06
9.63959e-06
-3.49981e-06
6.00651e-06
-3.38854e-06
3.46055e-06
-4.3928e-06
2.42511e-06
-4.49018e-06
2.50586e-06
-3.8698e-06
3.44258e-06
-3.30147e-06
4.85087e-06
-2.75206e-06
6.42846e-06
-2.23002e-06
8.0117e-06
-1.73363e-06
9.49833e-06
-1.25439e-06
1.08775e-05
-8.11125e-07
1.2152e-05
-3.37448e-07
1.33568e-05
1.9922e-07
1.43732e-05
1.04626e-06
1.56626e-05
1.62659e-06
1.78422e-05
2.09209e-06
2.17171e-05
2.21099e-06
3.30997e-06
2.83974e-05
5.10786e-06
-1.44617e-06
1.05907e-05
-1.65008e-06
1.39741e-05
-1.9359e-06
1.40779e-05
-1.95035e-06
1.26865e-05
-1.32379e-06
1.14561e-05
-4.90339e-07
1.06765e-05
-6.6157e-07
9.75791e-06
-1.19266e-06
8.75132e-06
-1.31008e-06
8.10593e-06
-1.25842e-06
7.9854e-06
-1.21264e-06
8.14648e-06
-1.03439e-06
8.44955e-06
-8.66467e-07
8.80826e-06
-7.21247e-07
9.26928e-06
-6.40953e-07
1.02496e-05
-7.36127e-07
1.18807e-05
-8.0312e-07
1.34591e-05
-4.78449e-07
1.45094e-05
2.41873e-08
1.55913e-05
2.87946e-07
1.71415e-05
2.47248e-07
1.93187e-05
-1.19526e-07
-2.06443e-07
2.26222e-05
1.0165e-07
-2.35736e-10
-5.43138e-08
-1.03514e-08
-5.30599e-07
-2.8615e-09
-1.06741e-06
1.65772e-08
-1.12976e-06
-2.10856e-10
-5.2433e-07
-1.7722e-09
-1.5598e-07
-7.26153e-09
-1.7557e-07
-2.03441e-08
-2.19205e-07
-4.72879e-08
-1.38841e-07
-1.20815e-07
-1.82379e-07
-1.18383e-07
-5.2736e-07
-5.94696e-08
-1.12996e-06
-8.85278e-08
-1.88483e-06
-2.56444e-08
-2.54354e-06
9.5772e-08
-2.38131e-06
1.31429e-07
-9.91641e-07
7.96546e-08
-5.18683e-07
4.30802e-08
-6.51553e-07
1.82548e-08
-7.3576e-07
1.70213e-08
-8.67422e-07
1.87029e-08
-1.51075e-06
4.27301e-09
-9.30389e-09
-2.42979e-06
-2.71327e-10
-6.68407e-12
-1.09747e-08
-1.40026e-10
-1.58888e-08
3.97785e-10
-7.77879e-11
5.79201e-10
-4.47524e-10
1.70086e-11
-2.43064e-09
2.38687e-11
-1.0259e-08
3.47758e-11
-3.22857e-08
-8.73124e-11
-8.39572e-08
-4.68299e-10
-2.13572e-07
-1.96229e-09
-3.45994e-07
-5.05724e-09
-3.97244e-07
-5.55415e-09
-4.7583e-07
-1.09549e-08
-4.75192e-07
-7.96624e-09
-4.01476e-07
1.63555e-08
-3.16997e-07
2.1637e-08
-2.76573e-07
1.14817e-08
-2.79395e-07
2.22013e-09
-2.87935e-07
-1.36698e-08
-2.88238e-07
-3.06627e-08
-3.25997e-07
-3.15245e-08
-4.61717e-07
-1.91357e-08
2.99231e-08
-8.15663e-07
-4.55724e-11
7.07944e-12
-6.40198e-10
5.41316e-11
-4.64621e-10
3.51425e-11
-4.64773e-11
7.83869e-11
-2.11303e-10
3.71938e-11
-4.0169e-10
6.96194e-11
-7.27113e-10
9.97924e-11
-1.56121e-09
1.38548e-10
-3.69558e-09
1.78508e-10
-8.9838e-09
2.37754e-10
-7.19103e-08
-2.39342e-10
-1.7718e-07
2.28902e-09
-2.21025e-07
4.43758e-09
-1.83526e-07
-9.28559e-10
-1.48008e-07
1.36898e-10
-1.60645e-07
4.89906e-09
-1.70308e-07
-4.16817e-09
-1.68971e-07
-2.81136e-08
-1.71856e-07
-5.47829e-08
-2.19488e-07
-7.50559e-08
-2.47225e-07
-1.39322e-07
-3.37747e-07
-2.86248e-08
1.69411e-07
-7.67548e-07
-1.5871e-11
6.1229e-12
-7.18426e-11
-3.77426e-12
-6.85175e-11
7.88246e-12
-3.14884e-11
1.51752e-11
-8.24903e-11
5.92882e-11
-3.00699e-11
8.43553e-11
-6.35533e-11
5.8533e-11
-1.61128e-10
3.81156e-11
-5.79726e-10
5.49785e-11
-1.77857e-09
5.52975e-11
-4.2962e-09
-6.45524e-11
-2.02064e-08
-3.88385e-10
-5.35767e-08
-4.29197e-10
-6.39623e-08
6.811e-09
-2.12033e-08
3.25722e-09
-5.22787e-08
6.31671e-09
-7.71546e-08
-8.6512e-09
-9.92716e-08
-5.16528e-08
-1.03636e-07
-1.25826e-07
-3.30294e-07
-2.19831e-07
-7.82585e-07
-3.49889e-07
-1.21678e-06
-2.37863e-07
4.60316e-08
-1.68002e-06
-1.67597e-12
4.28701e-13
-8.86002e-12
8.51972e-13
-9.41601e-12
1.93467e-12
-2.12058e-11
1.07703e-11
-4.56706e-11
7.18455e-11
-9.69741e-11
7.05201e-11
-3.97299e-11
1.29697e-11
-5.7676e-11
1.31962e-11
-1.39464e-10
1.6832e-11
-3.55365e-10
2.81456e-11
-8.94549e-10
6.26072e-11
-1.98978e-09
9.89759e-11
-4.62453e-09
2.60934e-10
-3.85061e-09
1.02642e-09
6.091e-10
3.74288e-09
-1.30997e-08
8.03814e-09
-5.58781e-08
5.02025e-09
-1.37845e-07
-3.52905e-08
-2.57704e-07
-1.46824e-07
-5.0876e-07
-3.44168e-07
-9.34812e-07
-6.28413e-07
-1.01722e-06
-7.71295e-07
-5.19955e-07
-2.02386e-06
-3.51524e-13
1.58045e-12
-6.44795e-13
6.04897e-13
-8.69441e-13
2.89663e-13
-2.44927e-11
8.78975e-12
-5.96746e-11
1.629e-11
-1.92339e-11
4.38653e-12
-1.28525e-11
2.19923e-12
-1.30626e-11
2.61411e-12
-2.77587e-11
4.78468e-12
-6.47259e-11
1.0498e-11
-1.36321e-10
2.98113e-11
-2.60244e-10
8.60978e-11
-4.91933e-10
1.97884e-10
-7.89671e-10
5.93806e-10
-6.24144e-10
1.37891e-09
-2.88628e-10
5.37987e-09
-1.89186e-08
1.28695e-08
-1.53221e-07
2.29499e-08
-5.03622e-07
-6.03931e-09
-1.19986e-06
-1.06809e-07
-2.43465e-06
-3.0191e-07
-4.4446e-06
-5.07794e-07
-4.15338e-07
-8.28467e-06
-1.49903e-13
1.52157e-12
-1.68571e-13
3.33828e-13
-1.1155e-12
1.8327e-13
-3.78387e-12
-6.42265e-14
-4.1206e-12
4.9318e-13
-2.02065e-12
8.43573e-13
-1.39912e-12
4.51458e-13
-2.19645e-12
7.95766e-13
-5.45356e-12
1.92824e-12
-1.26419e-11
4.62231e-12
-2.66991e-11
1.60194e-11
-4.94852e-11
5.33027e-11
-7.05527e-11
1.41357e-10
-1.27633e-10
3.56147e-10
-7.36048e-10
1.39542e-09
-3.21075e-11
1.97567e-09
2.17545e-09
2.90215e-09
-6.94197e-09
6.65631e-09
-8.25482e-08
1.22525e-08
-3.30145e-07
2.21535e-08
-9.5286e-07
2.4387e-08
-2.19994e-06
2.64687e-08
5.81022e-08
-3.90079e-06
-1.38703e-13
4.22332e-12
-9.5557e-14
5.63107e-13
-1.08844e-13
6.42505e-14
-5.36031e-13
4.66856e-14
-6.71501e-13
1.30367e-13
-3.23329e-13
1.59709e-13
-3.05889e-13
1.29972e-13
-4.78274e-13
2.89962e-13
-1.18934e-12
9.53844e-13
-2.66274e-12
3.05283e-12
-6.37937e-12
9.1084e-12
-1.57839e-11
3.50722e-11
-4.54848e-11
1.15682e-10
-1.19386e-10
5.51324e-10
-4.2727e-10
1.78332e-09
-4.56798e-10
1.74367e-10
-7.44234e-10
1.15026e-09
-2.77219e-09
2.46221e-09
-9.62164e-09
4.15933e-09
-2.46613e-08
6.29217e-09
-2.25857e-07
1.04299e-08
-5.23289e-07
-2.70737e-09
9.99486e-09
-7.29008e-07
5.09393e-15
4.50763e-12
-4.13412e-14
1.27475e-12
-3.17624e-14
3.22863e-14
-8.08334e-14
2.5923e-14
-8.74793e-14
4.80858e-14
-5.17779e-14
4.28093e-14
-6.52588e-14
5.5872e-14
-1.23251e-13
1.4367e-13
-3.17415e-13
4.69057e-13
-1.01949e-12
2.09336e-12
-4.19626e-12
8.88179e-12
-1.01941e-11
3.6322e-11
-3.18778e-10
6.79166e-10
-7.05258e-10
1.52456e-09
-9.05618e-10
1.56369e-09
-3.30467e-10
6.01583e-10
-3.8144e-10
5.1461e-10
-7.51394e-10
9.03742e-10
-2.59651e-09
1.53094e-09
-8.41686e-09
2.48583e-09
-2.5538e-08
3.69402e-09
-7.78417e-08
-5.70234e-11
7.35399e-09
-1.45204e-07
4.70758e-14
4.74997e-12
-2.12512e-14
1.49074e-12
-7.05634e-15
1.26839e-14
-1.30109e-14
1.34252e-14
-1.50263e-14
1.73391e-14
-1.30886e-14
1.49771e-14
-2.01947e-14
2.95298e-14
-4.01824e-14
7.91525e-14
-1.61905e-13
4.07086e-13
-1.19035e-12
2.75065e-12
-2.10558e-11
2.82654e-11
-2.77434e-10
2.1463e-10
-1.28482e-09
1.33336e-09
-1.16076e-09
1.72052e-09
-6.21752e-10
9.86786e-10
-3.04999e-10
1.88111e-10
-2.43978e-10
2.00425e-10
-3.24453e-10
3.4648e-10
-7.45397e-10
5.71437e-10
-1.73703e-09
8.56122e-10
-4.35528e-09
1.50312e-09
-1.49692e-08
1.2854e-09
3.18043e-09
-2.98934e-08
-4.53804e-14
3.52953e-12
-9.06249e-15
1.16023e-12
-1.67866e-15
3.91581e-15
-3.05278e-15
5.34277e-15
-3.4076e-15
6.88287e-15
-4.99486e-15
6.51458e-15
-1.24844e-14
1.70027e-14
-3.09653e-14
6.6769e-14
-2.92195e-13
6.03464e-13
-3.45708e-12
5.66516e-12
-2.40882e-11
4.68278e-11
-1.17977e-09
4.50586e-10
-1.46615e-09
1.57497e-09
-9.31358e-10
1.32856e-09
-1.78258e-10
2.56924e-10
-1.19041e-10
8.66586e-11
-1.23293e-10
1.04052e-10
-1.74318e-10
1.52657e-10
-3.39266e-10
2.34658e-10
-5.85273e-10
2.85198e-10
-1.2642e-09
5.44817e-10
-4.00296e-09
4.76731e-10
9.97204e-10
-7.66458e-09
-7.87825e-14
2.58216e-13
-3.09279e-15
4.06598e-13
-4.84304e-16
9.18747e-16
-9.01348e-16
1.47037e-15
-1.13734e-15
2.24576e-15
-1.65182e-15
3.30802e-15
-5.10588e-15
1.09719e-14
-3.52747e-14
8.39472e-14
-4.02998e-13
9.14888e-13
-3.39542e-12
8.17632e-12
-7.03501e-12
4.58396e-11
-5.83477e-10
3.93058e-10
-1.43606e-09
5.86539e-10
-2.51311e-10
1.51302e-10
-7.92579e-11
6.4512e-11
-6.85374e-11
5.03706e-11
-7.84155e-11
7.07981e-11
-1.00246e-10
6.87588e-11
-1.67602e-10
5.37019e-11
-2.36501e-10
7.91551e-11
-5.07367e-10
2.15453e-10
-1.48568e-09
1.80496e-10
3.17171e-10
-2.70837e-09
-1.68858e-14
7.06511e-14
-7.58754e-16
6.58996e-14
-1.27091e-16
1.88269e-16
-1.90228e-16
3.96428e-16
-3.9297e-16
5.83478e-16
-1.40321e-15
1.77739e-15
-4.32747e-15
1.02339e-14
-3.01175e-14
1.02692e-13
-2.74328e-13
1.07803e-12
1.24446e-13
6.98731e-12
-9.37366e-11
6.88583e-11
-2.09524e-10
6.16913e-11
-1.40321e-10
3.32813e-11
-5.35343e-11
4.50344e-11
-3.70786e-11
3.6321e-11
-5.15211e-11
4.54932e-11
-6.99612e-11
6.23838e-11
-4.81481e-11
7.6978e-11
-5.8279e-11
1.68095e-11
-9.78491e-11
6.77048e-11
-2.36806e-10
1.26822e-10
-6.29599e-10
1.04637e-10
1.94042e-10
-1.0966e-09
-4.65618e-15
4.33364e-14
-1.28445e-16
2.42106e-14
-2.66198e-17
8.63348e-17
-4.82079e-17
3.1731e-16
-1.06192e-16
3.37847e-16
-4.36534e-16
1.03309e-15
-2.13849e-15
1.00558e-14
-1.15892e-14
1.01641e-13
1.68776e-13
7.94887e-13
-8.42525e-12
7.55099e-12
-3.32967e-11
2.23517e-11
-4.02511e-11
5.01018e-12
-3.60771e-11
1.45865e-11
-2.44587e-11
1.84957e-11
-3.68779e-11
3.56402e-11
-1.98821e-11
7.0013e-11
-2.84348e-11
1.01126e-10
-9.56057e-11
9.05352e-11
-1.03368e-10
4.71317e-11
-9.05929e-11
4.95766e-11
-1.41246e-10
7.7507e-11
-2.85331e-10
8.90674e-11
1.56472e-10
-4.84119e-10
-1.40444e-15
2.32261e-14
5.07316e-19
1.02565e-14
4.03673e-19
-6.37579e-18
-2.41725e-17
-3.26315e-18
-1.45849e-16
1.42822e-16
-3.82057e-16
7.99279e-16
2.69706e-16
8.15978e-15
2.86276e-14
6.44378e-14
2.49124e-13
4.89025e-13
-4.02327e-12
4.19979e-12
-7.49032e-12
8.48399e-13
-1.0955e-11
3.09709e-12
-8.21576e-12
5.85894e-12
-1.32496e-11
1.23532e-11
-3.34581e-11
4.71401e-11
-6.64393e-11
9.69535e-11
-1.01817e-10
9.67551e-11
-1.5865e-10
8.0938e-11
-7.72766e-11
3.76538e-11
-5.8074e-11
3.85551e-11
-7.69691e-11
4.74181e-11
-1.32727e-10
6.61105e-11
1.15361e-10
-2.1504e-10
-4.57519e-16
1.03991e-14
3.7872e-18
3.89186e-15
1.71659e-17
-5.02462e-17
1.50035e-17
-1.46844e-16
-2.33982e-16
-9.44457e-17
-3.48666e-16
6.408e-16
-1.07912e-15
6.57556e-15
1.85285e-14
4.53279e-14
-3.63013e-13
3.97222e-13
-8.93211e-13
4.86419e-13
-2.15445e-12
6.0451e-13
-2.21748e-12
1.29624e-12
-2.24885e-12
2.85573e-12
-7.7749e-12
8.51358e-12
-6.65506e-11
5.09021e-11
-7.92167e-11
1.00772e-10
-1.01982e-10
9.81647e-11
-1.33442e-10
8.33176e-11
-3.83579e-11
3.67881e-11
-3.66358e-11
2.18208e-11
-4.24381e-11
2.80416e-11
-6.56533e-11
4.56011e-11
9.87418e-11
-1.20049e-10
-1.43046e-16
4.10708e-15
4.43533e-18
1.38179e-15
2.09392e-17
-6.47238e-17
3.13897e-17
-1.95568e-16
-1.40584e-16
-2.15531e-16
-2.39294e-16
4.48447e-16
-1.86127e-15
4.8458e-15
-2.07667e-14
3.88712e-14
-1.18532e-13
1.85391e-13
-2.66884e-13
1.68854e-13
-5.00302e-13
3.24072e-13
-5.38486e-13
6.05336e-13
-7.95917e-13
1.53576e-12
-5.2988e-13
5.21159e-12
-4.8288e-11
2.60057e-11
-7.30239e-11
8.99228e-11
-8.48846e-11
1.01207e-10
-7.59218e-11
7.28634e-11
-1.91453e-11
2.67104e-11
-2.1053e-11
1.26234e-11
-2.97842e-11
2.29481e-11
-5.47319e-11
4.78921e-11
1.40103e-10
-1.42723e-10
-4.48927e-17
1.6038e-15
3.87916e-18
4.85653e-16
1.8794e-17
-6.33809e-17
3.43279e-17
-1.95229e-16
-7.73339e-17
-2.6156e-16
-1.58659e-16
3.36326e-16
-1.84212e-15
2.88492e-15
-1.95314e-14
2.39116e-14
-4.98722e-14
8.23021e-14
-9.29193e-14
1.20566e-13
-1.37341e-13
1.64285e-13
-1.9288e-13
3.13924e-13
-2.2988e-13
8.00633e-13
7.55728e-13
2.64842e-12
-1.41821e-11
9.1746e-12
-6.19416e-11
4.53739e-11
-5.84428e-11
9.72918e-11
-2.71426e-11
3.21519e-11
-1.33937e-11
9.96787e-12
-1.78088e-11
1.08305e-11
-2.81873e-11
2.26861e-11
-6.54302e-11
6.66014e-11
2.48814e-10
-2.20479e-10
-1.44008e-17
6.23084e-16
2.96294e-18
1.69153e-16
1.46546e-17
-5.47123e-17
3.06078e-17
-1.71695e-16
-2.73887e-17
-2.62794e-16
-1.53844e-16
1.85597e-16
-1.10172e-15
1.46235e-15
-8.69705e-15
1.1149e-14
-2.42494e-14
3.84252e-14
-3.8945e-14
7.13912e-14
-5.26519e-14
9.64755e-14
-7.21474e-14
1.65855e-13
-1.86021e-14
4.05609e-13
4.50783e-13
1.42634e-12
-2.72442e-12
5.91502e-12
-2.47437e-11
1.42044e-12
-2.68667e-11
7.89467e-12
-7.50797e-12
5.15779e-12
-4.78985e-12
4.56955e-12
-6.35504e-12
9.4746e-12
-1.67209e-11
2.69908e-11
-6.16439e-11
9.39152e-11
3.72586e-10
-2.37741e-10
-4.69887e-18
2.40845e-16
2.06504e-18
5.76306e-17
1.03871e-17
-4.36381e-17
2.40157e-17
-1.39549e-16
1.36236e-18
-2.36595e-16
-2.09489e-16
-1.05964e-17
-4.91898e-16
6.35363e-16
-3.42326e-15
4.91898e-15
-1.00879e-14
1.73069e-14
-1.75385e-14
3.56651e-14
-2.52e-14
5.62182e-14
-2.59542e-14
9.25626e-14
1.60843e-14
2.32759e-13
-6.57793e-13
9.89654e-13
-1.96186e-12
1.85396e-12
-4.43104e-12
9.56023e-13
-4.1563e-12
2.03774e-12
-2.5422e-12
2.08539e-12
-3.12355e-12
3.19014e-12
-4.52718e-12
8.17851e-12
-1.12357e-11
2.79817e-11
-4.77476e-11
1.10803e-10
4.64933e-10
-1.99632e-10
-1.54762e-18
9.26333e-17
1.32663e-18
1.89198e-17
6.7733e-18
-3.27994e-17
1.69249e-17
-1.06884e-16
1.14579e-17
-1.96133e-16
-7.78221e-17
-1.04892e-16
-1.86664e-16
2.5557e-16
-1.26091e-15
2.06113e-15
-3.78601e-15
7.49543e-15
-7.24773e-15
1.62312e-14
-1.16747e-14
2.85255e-14
-1.56108e-14
5.46525e-14
-3.45232e-14
1.54344e-13
-3.23649e-13
5.2617e-13
-7.09929e-13
4.06761e-13
-1.44587e-12
6.10664e-13
-1.26312e-12
8.16335e-13
-7.8049e-13
9.32857e-13
-1.14431e-12
2.24731e-12
-1.42928e-12
6.39578e-12
-4.22413e-12
2.5888e-11
-2.62701e-11
1.12709e-10
4.92875e-10
-1.10042e-10
-5.09739e-19
3.54285e-17
7.82234e-19
5.87707e-18
4.05431e-18
-2.34511e-17
1.07697e-17
-7.78818e-17
1.1754e-17
-1.52159e-16
-2.51195e-17
-1.31272e-16
-6.11404e-17
1.25303e-16
-4.28306e-16
8.11213e-16
-1.32157e-15
3.1277e-15
-2.67612e-15
7.10802e-15
-4.97937e-15
1.35371e-14
-1.09105e-14
3.10653e-14
-4.90965e-14
1.0018e-13
-1.15104e-13
2.47569e-13
-2.46347e-13
2.58028e-13
-3.83502e-13
3.43386e-13
-3.40206e-13
3.95431e-13
-2.84408e-13
5.11717e-13
-2.40109e-13
1.31187e-12
4.91154e-13
4.20363e-12
3.86285e-12
1.81671e-11
1.46828e-11
8.68095e-11
3.95454e-10
7.01026e-11
-1.64079e-19
1.34499e-17
4.17114e-19
1.7108e-18
2.1979e-18
-1.60272e-17
6.13978e-18
-5.42638e-17
8.50389e-18
-1.11612e-16
-5.40995e-18
-1.22265e-16
-2.43986e-17
6.43339e-17
-1.31124e-16
2.96309e-16
-4.22097e-16
1.25525e-15
-9.08307e-16
3.02197e-15
-1.95245e-15
6.25149e-15
-5.91788e-15
1.62514e-14
-2.49806e-14
5.40445e-14
-5.04493e-14
1.2943e-13
-8.63057e-14
1.79729e-13
-1.16029e-13
1.97541e-13
-1.11947e-13
2.06464e-13
-8.37344e-14
2.75298e-13
8.10293e-14
6.69837e-13
9.53633e-13
2.33195e-12
5.1542e-12
1.11273e-11
1.33131e-11
6.26424e-11
2.4894e-10
1.2615e-10
-4.88757e-20
5.0563e-18
1.94628e-19
4.88701e-19
1.04526e-18
-1.04985e-17
3.04949e-18
-3.62597e-17
4.90031e-18
-7.79171e-17
8.13414e-19
-9.907e-17
-1.71499e-17
-1.36156e-17
-3.46117e-17
9.66039e-17
-1.18935e-16
4.82372e-16
-2.7348e-16
1.2436e-15
-6.65282e-16
2.78098e-15
-2.35175e-15
7.88346e-15
-8.97341e-15
2.66432e-14
-2.02059e-14
6.64376e-14
-2.99504e-14
1.07156e-13
-3.52084e-14
1.24613e-13
-3.49613e-14
1.31855e-13
-2.44674e-14
1.61322e-13
4.54331e-14
3.45936e-13
4.98441e-13
1.23144e-12
1.81533e-12
6.81667e-12
6.08404e-12
3.97748e-11
1.27167e-10
1.01213e-10
-1.17708e-20
1.87882e-18
7.28141e-20
2.18755e-19
4.00587e-19
-6.60246e-18
1.21605e-18
-2.32803e-17
2.16615e-18
-5.19888e-17
1.38082e-18
-7.33057e-17
-3.31759e-18
-3.87834e-17
-7.11077e-18
3.4238e-17
-2.68352e-17
1.75803e-16
-6.57357e-17
4.92591e-16
-1.74685e-16
1.1788e-15
-6.62509e-16
3.55039e-15
-2.46041e-15
1.23344e-14
-5.55198e-15
3.21978e-14
-8.54674e-15
5.52569e-14
-1.00464e-14
7.25691e-14
-1.07374e-14
8.19674e-14
-9.90952e-15
9.70968e-14
7.71709e-15
1.84893e-13
1.46784e-13
6.38355e-13
5.12274e-13
3.85025e-12
1.72298e-12
2.23027e-11
6.67108e-11
3.42276e-11
-1.06157e-21
6.89447e-19
1.45866e-20
9.35042e-20
8.43782e-20
-3.99153e-18
2.67571e-19
-1.43806e-17
5.14127e-19
-3.32516e-17
4.7879e-19
-5.06534e-17
-3.04651e-19
-3.96363e-17
-8.75305e-19
2.21052e-17
-3.06073e-18
5.93168e-17
-7.66566e-18
1.8676e-16
-2.05034e-17
4.73434e-16
-7.57947e-17
1.48686e-15
-2.63411e-16
5.3392e-15
-5.49004e-16
1.46136e-14
-7.50529e-16
2.62239e-14
-7.66776e-16
3.55819e-14
-6.67704e-16
4.24052e-14
-4.83135e-16
5.2948e-14
-1.07511e-17
1.00261e-13
6.80698e-15
3.26449e-13
1.48887e-13
1.88983e-12
1.40994e-12
1.02576e-11
3.16263e-11
8.43267e-12
1.47849e-21
2.49365e-19
-5.99739e-23
-1.78608e-20
-1.15441e-20
-2.33042e-18
-5.6664e-20
-8.57288e-18
-1.71658e-19
-2.04408e-17
-3.45023e-19
-3.30448e-17
-4.06142e-19
-3.17021e-17
-2.32828e-20
-1.49497e-18
1.21895e-18
1.75854e-17
4.21507e-18
6.7647e-17
1.28682e-17
1.81044e-16
5.07207e-17
5.87328e-16
2.1447e-16
2.17027e-15
6.31515e-16
6.20409e-15
1.18971e-15
1.16905e-14
1.74995e-15
1.64195e-14
2.4317e-15
2.0118e-14
4.09212e-15
2.59094e-14
1.47802e-14
4.77751e-14
9.9682e-14
1.24712e-13
7.64455e-13
5.7169e-13
3.86751e-12
2.70968e-12
1.17676e-11
1.44142e-11
1.32906e-21
8.85814e-20
-4.22723e-22
-4.28717e-20
-1.99075e-20
-1.324e-18
-1.00559e-19
-4.95737e-18
-3.11799e-19
-1.21219e-17
-6.45969e-19
-2.05034e-17
-8.41232e-19
-2.23015e-17
-3.73838e-19
-8.41033e-18
1.17734e-18
6.01175e-18
4.10084e-18
2.31853e-17
1.25052e-17
6.62806e-17
4.85413e-17
2.21025e-16
2.02221e-16
8.33442e-16
6.00037e-16
2.47025e-15
1.14952e-15
4.89186e-15
1.69888e-15
7.15642e-15
2.33423e-15
9.00301e-15
3.70398e-15
1.17496e-14
1.0501e-14
2.14704e-14
5.46114e-14
5.10166e-14
3.73916e-13
1.97173e-13
2.13526e-12
1.10184e-12
4.53284e-12
8.27651e-12
7.28287e-22
3.08609e-20
-6.03372e-22
-3.83247e-20
-1.76929e-20
-7.32414e-19
-9.09309e-20
-2.78348e-18
-2.87911e-19
-6.95061e-18
-6.16605e-19
-1.21829e-17
-8.71334e-19
-1.44412e-17
-6.00663e-19
-8.4965e-18
6.41357e-19
3.90217e-18
2.23524e-18
7.18254e-18
7.10956e-18
2.3243e-17
2.77726e-17
7.93452e-17
1.16622e-16
3.03233e-16
3.56621e-16
9.26013e-16
7.12624e-16
1.92232e-15
1.08461e-15
2.93635e-15
1.50505e-15
3.79814e-15
2.32236e-15
4.96859e-15
5.72069e-15
8.81241e-15
2.35758e-14
2.11653e-14
1.54369e-13
6.91063e-14
8.27043e-13
3.56241e-13
1.51314e-12
3.38426e-12
3.30205e-22
1.05358e-20
-5.66108e-22
-2.71156e-20
-1.26852e-20
-3.94702e-19
-6.6107e-20
-1.51886e-18
-2.13082e-19
-3.86022e-18
-4.69271e-19
-6.96322e-18
-7.0503e-19
-8.78929e-18
-6.07047e-19
-6.47318e-18
-1.12133e-20
-1.03621e-19
9.23156e-19
1.8731e-18
3.31149e-18
7.79567e-18
1.29214e-17
2.72945e-17
5.46802e-17
1.05194e-16
1.72268e-16
3.28896e-16
3.60078e-16
7.11996e-16
5.67778e-16
1.13457e-15
7.99882e-16
1.50936e-15
1.2118e-15
1.97709e-15
2.72567e-15
3.35509e-15
9.37034e-15
8.27762e-15
4.71723e-14
2.37606e-14
2.74549e-13
1.09465e-13
4.69543e-13
1.19669e-12
1.33502e-22
3.52145e-21
-4.29839e-22
-1.70821e-20
-8.05276e-21
-2.07324e-19
-4.24537e-20
-8.06101e-19
-1.38931e-19
-2.07952e-18
-3.13141e-19
-3.84036e-18
-4.93185e-19
-5.08549e-18
-4.87566e-19
-4.30508e-18
-1.56189e-19
-1.19677e-18
3.73694e-19
7.19444e-19
1.35229e-18
2.45948e-18
5.28944e-18
9.01865e-18
2.24925e-17
3.4998e-17
7.26965e-17
1.11401e-16
1.58516e-16
2.49924e-16
2.59276e-16
4.14149e-16
3.71653e-16
5.66391e-16
5.55565e-16
7.43455e-16
1.16116e-15
1.20458e-15
3.66538e-15
2.9129e-15
1.58557e-14
9.10117e-15
8.41625e-14
3.23874e-14
1.40281e-13
3.88303e-13
4.96175e-23
1.15149e-21
-2.85061e-22
-9.99127e-21
-4.69092e-21
-1.06198e-19
-2.49679e-20
-4.16433e-19
-8.27616e-20
-1.08802e-18
-1.90156e-19
-2.04879e-18
-3.10819e-19
-2.8171e-18
-3.37886e-19
-2.62416e-18
-1.74604e-19
-1.17776e-18
1.42367e-19
4.02473e-19
4.86689e-19
6.89884e-19
1.97267e-18
2.87018e-18
8.40129e-18
1.12319e-17
2.77051e-17
3.62169e-17
6.2703e-17
8.36654e-17
1.06224e-16
1.43498e-16
1.55064e-16
2.01444e-16
2.29662e-16
2.65386e-16
4.50763e-16
4.13184e-16
1.3619e-15
9.57718e-16
5.60441e-15
3.39568e-15
2.54462e-14
1.14755e-14
3.94218e-14
1.17135e-13
1.72042e-23
3.68194e-22
-1.71346e-22
-5.53401e-21
-2.55305e-21
-5.30765e-20
-1.36925e-20
-2.09574e-19
-4.58726e-20
-5.53561e-19
-1.0708e-19
-1.05946e-18
-1.80292e-19
-1.50133e-18
-2.10032e-19
-1.49956e-18
-1.3795e-19
-8.55998e-19
-3.10753e-21
-1.69304e-20
1.49208e-19
1.81437e-19
6.88757e-19
8.84806e-19
2.90558e-18
3.49424e-18
9.72551e-18
1.137e-17
2.27105e-17
2.68847e-17
3.97122e-17
4.74667e-17
5.90207e-17
6.82147e-17
8.69077e-17
9.03099e-17
1.61992e-16
1.36314e-16
4.69857e-16
3.03859e-16
1.99747e-15
1.10063e-15
8.78484e-15
4.72804e-15
1.19394e-14
3.27447e-14
5.6084e-24
1.14997e-22
-9.53194e-23
-2.93446e-21
-1.31185e-21
-2.58969e-20
-7.07487e-21
-1.02838e-19
-2.3906e-20
-2.74218e-19
-5.65266e-20
-5.32039e-19
-9.74663e-20
-7.72595e-19
-1.19636e-19
-8.13603e-19
-9.11766e-20
-5.39242e-19
-2.26371e-20
-1.17628e-19
5.04724e-20
6.89059e-20
2.25882e-19
2.62655e-19
9.41815e-19
1.05705e-18
3.18736e-18
3.46643e-18
7.63324e-18
8.34478e-18
1.37154e-17
1.50821e-17
2.07239e-17
2.21092e-17
3.04182e-17
2.94264e-17
5.45046e-17
4.34411e-17
1.53304e-16
9.44284e-17
6.79222e-16
3.54084e-16
3.19649e-15
1.69317e-15
4.60092e-15
9.8392e-15
1.72833e-24
3.50094e-23
-4.97172e-23
-1.49955e-21
-6.40497e-22
-1.2343e-20
-3.46569e-21
-4.92528e-20
-1.17866e-20
-1.32439e-19
-2.81574e-20
-2.59941e-19
-4.94866e-20
-3.85091e-19
-6.32445e-20
-4.22545e-19
-5.33681e-20
-3.10295e-19
-2.11136e-20
-1.07925e-19
1.68286e-20
3.09637e-20
6.84941e-20
7.19978e-20
2.88686e-19
3.11866e-19
9.84975e-19
1.0318e-18
2.40503e-18
2.51676e-18
4.41847e-18
4.6317e-18
6.77217e-18
6.89791e-18
9.92561e-18
9.22499e-18