/*--------------------------------*- C++ -*----------------------------------*\
| =========                 |                                                 |
| \\      /  F ield         | OpenFOAM: The Open Source CFD Toolbox           |
|  \\    /   O peration     | Version:  2206                                  |
|   \\  /    A nd           | Website:  www.openfoam.com                      |
|    \\/     M anipulation  |                                                 |
\*---------------------------------------------------------------------------*/
FoamFile
{
    version     2.0;
    format      ascii;
    arch        "LSB;label=32;scalar=64";
    class       volScalarField;
    location    "0.9";
    object      p_rgh;
}
// * * * * * * * * * * * * * * * * * * * * * * * * * * * * * * * * * * * * * //

dimensions      [1 -1 -2 0 0 0 0];

internalField   nonuniform List<scalar> 
2268
(
703.491
703.411
703.403
703.37
703.18
702.81
702.357
701.981
701.781
701.762
701.881
702.097
702.391
702.747
703.15
703.575
703.975
704.285
704.385
704.282
704.338
704.85
705.442
703.467
703.345
703.317
703.252
703.027
702.627
702.161
701.794
701.6
701.582
701.718
701.961
702.273
702.635
703.037
703.464
703.875
704.165
704.159
703.822
703.816
704.365
705.188
703.375
703.236
703.166
703.035
702.732
702.251
701.757
701.424
701.295
701.339
701.511
701.776
702.095
702.449
702.825
703.214
703.593
703.91
704.098
704.211
704.507
704.98
705.749
703.215
703.07
702.892
702.663
702.272
701.73
701.215
700.917
700.875
701.005
701.238
701.537
701.875
702.233
702.604
702.982
703.364
703.743
704.124
704.534
705.084
705.796
706.515
702.905
702.586
702.149
701.691
701.314
700.95
700.614
700.427
700.451
700.652
700.942
701.276
701.635
702.005
702.378
702.759
703.158
703.592
704.087
704.673
705.405
706.249
707.032
702.376
701.627
700.521
699.648
699.421
699.609
699.871
700.054
700.167
700.373
700.674
701.026
701.4
701.777
702.147
702.514
702.905
703.362
703.938
704.666
705.552
706.518
707.342
701.762
700.43
698.348
696.999
697.07
697.994
699.036
699.77
700.059
700.213
700.458
700.787
701.165
701.55
701.913
702.243
702.578
703.003
703.626
704.484
705.525
706.597
707.395
702.111
700.024
697.272
695.342
695.946
697.353
698.581
699.465
699.925
700.09
700.274
700.561
700.93
701.317
701.675
701.929
702.126
702.406
703.014
704.03
705.301
706.715
707.044
1273.71
1232.61
1156.39
1083.83
1005.77
799.666
610.242
638.43
787.24
916.758
939.352
939.597
966.9
1000.11
1037.64
1088.51
1171.6
1266.77
1296.47
1280.86
1223.28
1130.32
1059.64
1011.72
801.504
572.703
602.073
765.364
910.485
948.117
943.37
965.308
986.061
1018.03
1077.29
1153.94
1248.34
1288.37
1296.36
1216.8
1121.83
1042.23
939.59
771.253
509.24
548.736
738.862
912.345
972.784
974.523
963.214
952.953
988.281
1047.16
1108.31
1220.09
1273.85
1304.29
1222.77
1108.59
1029.81
872.566
685.936
453.614
513.528
727.067
920.285
990.343
986.053
936.699
939.666
985.918
1041.53
1087.04
1188.78
1256.7
1302.76
1231.76
1202.82
924.882
839.673
657.702
491.849
483.055
663.01
923.555
997.643
990.994
946.191
940.66
985.957
1034.39
1072.28
1152.54
1237.95
1316.3
1353.21
1176.75
833.333
726.565
632.509
476.758
465.606
583.865
874.271
994.938
963.054
932.816
953.461
991.374
1025.57
1053.52
1132.71
1218.43
1304.31
1408.76
1157.7
821.654
666.633
624.164
527.21
497.715
569.161
797.497
989.526
1001.13
1004.1
1040.26
1071.01
1020.68
1033.69
1119.94
1196.04
1243.3
1406.51
1140.46
895.843
725.382
629.837
559.096
511.783
557.83
671.317
994.552
1017.9
1045.51
1075.75
1094.79
1077.13
1041.35
1057.34
1171.91
703.505
701.504
698.661
696.48
696.343
697.407
698.259
698.763
699.145
699.411
699.676
700.049
700.543
701.094
701.488
701.58
701.445
701.291
701.8
703.009
704.366
705.464
704.349
651.718
641.129
617.968
578.713
533.642
508.528
517.529
530.867
527.728
516.546
513.832
520.47
532.084
544.549
554.295
556.314
549.485
539.581
542.441
555.622
573.202
583.121
594.135
28.6088
28.7475
33.9918
40.0603
50.6696
63.2832
68.5455
66.504
68.8222
76.2321
79.0991
72.5678
62.5491
57.0273
53.3638
45.1454
27.1569
12.4521
9.96925
11.2479
11.9506
11.627
13.2304
3.30789
3.31559
3.34992
3.34607
3.3636
3.3818
3.40812
3.44673
3.46231
3.433
4.3074
4.47748
3.87323
3.62383
3.85165
4.33702
4.81008
5.31832
5.85898
6.43654
7.19604
8.26972
10.0216
3.25516
3.26391
3.25654
3.25693
3.2596
3.26056
3.26374
3.26187
3.25221
3.24499
3.55587
4.42558
4.58184
3.88324
3.72602
3.98934
4.31082
4.72611
5.30247
6.23582
8.31426
10.0952
11.9419
3.17203
3.1649
3.15835
3.15619
3.15322
3.14463
3.12874
3.10382
3.07674
3.04986
3.02285
3.08322
3.44636
3.57052
3.31517
3.42856
3.71024
4.1898
5.02827
7.8574
16.8189
20.4749
15.1406
3.06006
3.04944
3.03898
3.02921
3.02045
3.00697
2.98406
2.96116
2.93418
2.90346
2.87121
2.83852
2.81207
2.86954
2.89884
2.9994
3.2442
3.85979
5.13008
8.13504
14.0214
19.8215
27.8706
2.91995
2.91085
2.90054
2.88856
2.87541
2.85744
2.83803
2.81872
2.79741
2.77399
2.74949
2.72494
2.70179
2.6845
2.69767
2.78443
2.93943
3.45383
4.87731
7.9976
14.3146
26.9962
54.2295
2.76656
2.75986
2.75271
2.74298
2.72987
2.7148
2.69886
2.68201
2.66415
2.64547
2.62675
2.60914
2.59407
2.58496
2.59686
2.71496
2.69955
2.85663
3.27391
4.04425
6.02013
11.2327
18.3787
2.61655
2.61201
2.60788
2.60105
2.59095
2.57895
2.56561
2.55098
2.53525
2.51876
2.50217
2.48619
2.47144
2.45958
2.50227
2.53357
2.44903
2.4874
2.58367
2.78261
4.64861
6.44676
6.12445
2.47717
2.47297
2.47032
2.46539
2.4573
2.44731
2.43585
2.4229
2.40866
2.39328
2.37703
2.36017
2.34876
2.3819
2.37102
2.29755
2.26579
2.25912
2.26294
2.29003
2.43031
2.79985
3.15804
2.34323
2.34132
2.33886
2.33469
2.32783
2.31918
2.30907
2.29747
2.28455
2.27028
2.25466
2.24083
2.27252
2.26051
2.23104
2.14549
2.12576
2.11125
2.10077
2.09469
2.10362
2.15983
2.30368
2.21313
2.21262
2.21045
2.20684
2.20097
2.19354
2.18476
2.17466
2.16336
2.15077
2.13681
2.13518
2.16945
2.14987
2.06202
2.03493
2.01662
2.00244
1.99211
1.98282
1.97836
1.99442
2.01058
2.08635
2.08586
2.0839
2.08066
2.0756
2.06928
2.06181
2.05327
2.04375
2.03316
2.02139
2.02469
2.05643
1.99208
1.95288
1.93421
1.91715
1.90307
1.89206
1.88103
1.87233
1.87036
1.86129
1.96097
1.96006
1.95815
1.9551
1.95066
1.94523
1.93884
1.93164
1.92366
1.91487
1.90706
1.90561
1.88671
1.865
1.84886
1.83269
1.81748
1.80417
1.7941
1.78223
1.77421
1.76941
1.76101
1.83558
1.83428
1.83251
1.82957
1.82555
1.82068
1.81501
1.80869
1.80178
1.79443
1.78767
1.77776
1.76546
1.75289
1.73954
1.72598
1.71418
1.70327
1.69192
1.68069
1.67458
1.671
1.66768
1.71018
1.70882
1.70716
1.7042
1.70035
1.69566
1.69026
1.68427
1.67778
1.67094
1.66364
1.65476
1.64511
1.63437
1.62352
1.61315
1.60163
1.5909
1.57876
1.56849
1.56244
1.55916
1.55808
1.5854
1.58414
1.58243
1.57936
1.57543
1.57062
1.56506
1.55887
1.55216
1.54503
1.53724
1.52884
1.51957
1.50943
1.49992
1.4897
1.47795
1.4665
1.45314
1.44196
1.43344
1.42769
1.42557
1.46156
1.46041
1.45854
1.45533
1.45118
1.44604
1.44005
1.43328
1.42586
1.41784
1.40925
1.40002
1.39006
1.37924
1.36883
1.35831
1.34523
1.33161
1.31517
1.30137
1.28802
1.27684
1.27022
1.33897
1.33785
1.33579
1.33245
1.32802
1.32248
1.31591
1.30837
1.29993
1.29069
1.28068
1.26991
1.25831
1.2458
1.23266
1.22042
1.20539
1.18733
1.16758
1.14898
1.12895
1.1099
1.09475
1.21821
1.21706
1.21481
1.2113
1.20657
1.2006
1.19341
1.18501
1.17544
1.16477
1.15304
1.14025
1.12639
1.11136
1.09519
1.07856
1.0597
1.03696
1.0138
0.988653
0.960424
0.931452
0.90412
1.1001
1.09887
1.09643
1.09271
1.08764
1.0812
1.07336
1.06409
1.05338
1.04125
1.02771
1.01275
0.996319
0.978366
0.958812
0.937148
0.913377
0.88706
0.858258
0.82609
0.789396
0.750193
0.70993
0.985721
0.984375
0.981722
0.977708
0.972235
0.965273
0.956738
0.946585
0.934757
0.921218
0.905927
0.888836
0.869871
0.848926
0.825827
0.800271
0.771959
0.740532
0.705837
0.666996
0.622612
0.57431
0.522741
0.876239
0.874764
0.871867
0.867501
0.861555
0.853996
0.844726
0.833674
0.820752
0.805881
0.788974
0.769935
0.748642
0.724941
0.698614
0.669401
0.636905
0.600714
0.560611
0.515827
0.46482
0.40851
0.347568
0.7728
0.771193
0.76804
0.763292
0.756843
0.748662
0.738646
0.726713
0.712756
0.696665
0.67832
0.657582
0.634288
0.608238
0.579185
0.54684
0.510793
0.470556
0.425833
0.376046
0.319575
0.256653
0.188061
0.676353
0.674621
0.671228
0.66612
0.659203
0.650448
0.639753
0.627032
0.61217
0.595041
0.575501
0.553384
0.528496
0.500604
0.469431
0.434661
0.39588
0.352544
0.304229
0.25052
0.189986
0.122042
0.0470876
0.587582
0.585731
0.582143
0.576747
0.569463
0.560258
0.549037
0.535712
0.520167
0.50227
0.481865
0.458771
0.432776
0.403629
0.371035
0.334653
0.294071
0.24873
0.198057
0.141686
0.0786138
0.00746954
-0.0718949
0.506937
0.504856
0.501165
0.495612
0.488114
0.478647
0.46712
0.45345
0.437524
0.419211
0.398353
0.374765
0.348231
0.318493
0.285251
0.248152
0.206786
0.160613
0.108952
0.0513136
-0.0127782
-0.08516
-0.166755
0.43448
0.432103
0.428424
0.42285
0.415309
0.405788
0.394206
0.380483
0.364513
0.34617
0.325304
0.301734
0.275249
0.2456
0.212492
0.175579
0.134454
0.0886158
0.0373853
-0.0199513
-0.0838813
-0.155596
-0.237007
0.369941
0.367412
0.363842
0.35836
0.350936
0.341571
0.330187
0.316712
0.301046
0.283074
0.262658
0.239632
0.2138
0.18493
0.152749
0.116933
0.0770964
0.0327743
-0.0166439
-0.0719321
-0.13372
-0.202776
-0.281023
0.31298
0.310474
0.307099
0.301817
0.29467
0.285661
0.27472
0.26178
0.246754
0.229541
0.210019
0.188041
0.163438
0.136005
0.105503
0.0716487
0.0341049
-0.00754412
-0.0538111
-0.105368
-0.162932
-0.22704
-0.299073
0.263157
0.260812
0.257684
0.252705
0.245979
0.237508
0.227228
0.215082
0.200995
0.184885
0.166648
0.146164
0.123294
0.0978705
0.0696973
0.0385484
0.00415141
-0.0338299
-0.0758035
-0.122276
-0.173872
-0.231092
-0.29472
0.219904
0.21781
0.214967
0.210377
0.204194
0.196411
0.186973
0.175834
0.162934
0.148208
0.131575
0.112943
0.0922037
0.0692336
0.0438855
0.0159921
-0.0146457
-0.0482692
-0.0851759
-0.125719
-0.170333
-0.21945
-0.273485
0.182542
0.180758
0.178223
0.174092
0.168544
0.161561
0.153099
0.143126
0.131595
0.118458
0.103657
0.0871244
0.0687862
0.0485563
0.0263366
0.00201541
-0.0245371
-0.0534733
-0.0849835
-0.119294
-0.156663
-0.197371
-0.24167
0.150333
0.148889
0.146677
0.143049
0.138193
0.132084
0.124685
0.115977
0.105928
0.0945042
0.0816669
0.0673728
0.0515741
0.0342182
0.0152477
-0.00540141
-0.0278011
-0.0520328
-0.0781979
-0.106418
-0.136837
-0.169563
-0.204801
0.122519
0.121418
0.119531
0.116428
0.112293
0.10709
0.100796
0.0933985
0.0848789
0.0752162
0.0643877
0.0523687
0.0391329
0.0246532
0.00890263
-0.00814668
-0.0265235
-0.046259
-0.0673924
-0.0899667
-0.114057
-0.13965
-0.166932
0.0983541
0.0975758
0.0960042
0.0934309
0.090018
0.0857232
0.0805351
0.0744486
0.0674526
0.0595368
0.0506906
0.040903
0.0301631
0.0184617
0.00579217
-0.00784939
-0.0224639
-0.03805
-0.05461
-0.0721371
-0.0906659
-0.110119
-0.130665
0.0771193
0.0766101
0.0753414
0.0732912
0.0705785
0.0671694
0.0630602
0.0582474
0.052727
0.046496
0.0395515
0.0318915
0.0235155
0.0144249
0.00462479
-0.00587532
-0.0170614
-0.0289147
-0.0414184
-0.0545419
-0.0682944
-0.0825812
-0.0975367
0.0581804
0.0578507
0.0568813
0.0553369
0.0532892
0.0507329
0.0476573
0.0440604
0.0399446
0.0353101
0.0301583
0.0244926
0.0183177
0.0116404
0.0044709
-0.00317615
-0.0112814
-0.0198199
-0.0287683
-0.0380906
-0.0477828
-0.057761
-0.0681246
0.0407449
0.0404979
0.0398538
0.0387799
0.0373534
0.0356018
0.0334909
0.0310273
0.0282164
0.0250576
0.021555
0.0177135
0.0135394
0.0090407
0.00422818
-0.000883881
-0.00627747
-0.0119294
-0.0178178
-0.023911
-0.0302009
-0.0366211
-0.0432357
0.0247289
0.024412
0.0241756
0.0235147
0.0226958
0.0217253
0.0205357
0.0191562
0.0175853
0.015823
0.013874
0.0117422
0.00943275
0.00695222
0.00430845
0.00151142
-0.00142668
-0.00449014
-0.00766488
-0.0109315
-0.0142903
-0.0177075
-0.021252
0.00679197
0.00692847
0.00694016
0.00658912
0.00633072
0.00598728
0.00556278
0.00508113
0.00453138
0.00391747
0.00324201
0.00250712
0.00171631
0.000873312
-1.77426e-05
-0.000951805
-0.00192268
-0.00292181
-0.00394127
-0.00496828
-0.00599929
-0.00700381
-0.00799164
700.663
764.848
904.702
501.766
517.113
610.456
869.26
645.124
65.6837
377.028
715.393
640.321
13.8345
66.5273
388.863
691.27
17.1019
65.2795
498.174
667.879
42.7049
367.784
716.071
722.94
300.974
732.694
725.455
773.201
351.379
796.023
777.663
839.876
174.061
697.749
899.832
787.56
42.0751
192.303
379.48
241.517
5.6407
10.6267
13.4111
8.00601
2.55697
3.5447
4.68598
3.25039
2.04165
2.27767
2.45312
2.17319
1.83759
1.88831
2.00653
2.13806
1.7425
1.80407
2.00523
2.31096
1.66448
1.74467
1.99366
2.35797
1.5611
1.63412
1.87089
2.24988
1.4243
1.45712
1.66724
2.59545
1.25391
1.22273
1.42786
5.28402
1.05034
0.939626
1.39926
9.96864
0.820854
0.589966
2.53627
11.9879
0.591171
0.256841
3.41474
11.4754
0.376981
0.00221295
4.28799
10.7198
0.181147
-0.103679
4.93386
5.44278
0.00508825
-0.104752
4.15964
0.946625
-0.149036
-0.146444
2.58928
0.249908
-0.272324
-0.384485
1.00036
0.579774
-0.368043
-0.663796
0.540095
0.799775
-0.439441
-0.922121
0.131613
0.670303
-0.47629
-0.958078
-1.02493
0.519445
-0.477949
-0.902154
-1.51762
-0.723065
-0.451692
-0.804053
-1.35051
-1.82898
-0.405601
-0.683057
-1.1175
-1.55055
-0.348651
-0.55865
-0.876608
-1.21634
-0.288543
-0.443436
-0.663009
-0.902626
-0.230598
-0.342881
-0.488729
-0.645441
-0.177773
-0.257841
-0.35255
-0.450162
-0.131307
-0.18707
-0.247652
-0.306607
-0.0912684
-0.128534
-0.166359
-0.201075
-0.0578055
-0.0808417
-0.103079
-0.122565
-0.0291628
-0.0410648
-0.0521984
-0.0617953
-0.00995045
-0.0128593
-0.0150998
-0.0166253
1047.53
1329.12
1097.52
891.239
848.063
819.727
705.207
639.563
705.284
882.758
1005.09
1043.38
1022.18
1043.5
1090.95
1083.48
1071.42
1023.2
1128.29
980.446
1073.6
906.838
794.097
790.847
818.021
808.223
786.813
794.164
781.264
837.836
867.319
892.284
937.699
1030.94
1044.63
1073.53
1032.99
1136.91
842.313
806.256
348.906
314.696
650.06
736.278
786.261
793.121
815.156
855.529
838.572
780.739
850.753
814.225
748.858
861.39
1050.52
1114.92
1152.33
700.774
431.087
23.266
6.02417
3.45236
166.089
539.46
692.34
766.887
814.834
800.517
696.434
450.904
200.667
176.329
233.363
588.679
1106.66
1174.1
640.941
259.465
6.32628
1.92411
0.620771
-0.0446815
-1.30251
-2.17777
167.892
288.006
218.693
51.7149
18.8017
23.0548
66.2301
124.561
183.532
673.032
1209.89
703.17
207.889
1.79666
0.562301
0.132922
-0.15696
-0.577974
-1.05231
-1.37226
-1.20161
0.526956
1.3938
2.98363
8.78872
49.4054
118.811
143.381
103.637
1187.47
761.484
1.7808
0.962859
0.333612
-0.0713305
-0.366542
-0.68608
-0.98962
-1.0437
-0.632025
0.0985432
0.721428
1.33231
2.74777
33.3732
104.37
98.3754
38.4547
409.671
634.901
1.18989
0.938252
0.401531
-0.00290865
-0.217262
-0.437612
-0.733971
-0.919566
-0.659244
-0.123453
0.41192
0.89841
1.45232
2.00837
73.8212
99.2287
25.009
11.2028
72.4463
1.20367
1.02594
0.504315
0.0965121
-0.100776
-0.283697
-0.495202
-0.579186
-0.472818
-0.161072
0.259658
0.743711
1.34348
1.695
2.91106
98.802
13.912
10.3776
2.17499
1.43345
1.1421
0.63827
0.221581
-0.016906
-0.182847
-0.331272
-0.391446
-0.311005
-0.0656814
0.308321
0.767962
1.34304
1.7994
2.35731
25.3761
23.2552
8.49088
1.81718
1.59841
1.29025
0.809605
0.345063
0.0409859
-0.138364
-0.251384
-0.273847
-0.169663
0.0620206
0.388661
0.794713
1.2686
1.90519
2.48232
8.12737
25.1217
6.11763
1.86655
1.746
1.46076
0.970141
0.423888
0.0394166
-0.15884
-0.234741
-0.217626
-0.105215
0.0954834
0.359743
0.677985
0.995709
2.45785
5.59653
7.93205
24.1894
3.78762
2.07606
1.99893
1.65964
1.09509
0.409879
-0.060952
-0.26078
-0.282408
-0.220372
-0.101745
0.0691981
0.274508
0.498627
0.637308
3.61032
51.4117
21.7326
22.0263
3.23344
2.31421
2.26835
1.87813
1.1875
0.309404
-0.257691
-0.476205
-0.403663
-0.276542
-0.143437
0.00778015
0.168892
0.328124
0.373058
4.2126
78.6224
77.0195
4.88555
3.16018
2.51168
2.49483
2.18726
2.46262
0.476589
-0.493638
-0.869031
-0.60981
-0.380207
-0.220704
-0.0812882
0.0532122
0.200151
0.330307
5.0605
84.241
85.9023
1.45898
7.21188
2.60873
3.99083
7.88358
12.1241
7.86764
-0.344228
-1.47313
-0.908004
-0.529607
-0.33136
-0.19519
-0.0780588
0.132001
0.401626
5.74175
89.815
89.9479
1.46784
10.9874
3.89245
13.0168
14.5731
13.0831
10.8417
2.75728
-2.18167
-1.25106
-0.716331
-0.471366
-0.326283
-0.214374
0.0533522
0.482028
5.7349
94.3968
72.19
0.435158
3.96478
11.5901
14.277
13.8368
12.7682
10.1671
4.86182
-2.60414
-1.55419
-0.91917
-0.635429
-0.48692
-0.370967
-0.0953401
0.503185
5.35999
98.1853
12.0664
0.162951
0.00718907
13.9825
13.276
9.49337
12.5832
10.0019
4.45807
-2.7923
-1.73861
-1.11202
-0.79984
-0.65101
-0.574562
-0.394085
0.640447
39.8114
101.3
3.84119
0.0210295
0.0150288
13.1739
4.77296
-1.05183
5.54523
10.5284
1.24884
-3.02243
-1.86957
-1.24532
-0.941657
-0.801824
-0.807179
-0.921338
4.21903
97.6832
104.144
0.571695
-0.0403237
0.018198
10.8441
-0.702416
-1.20301
-1.80466
6.54573
-2.55057
-2.78847
-1.84449
-1.30142
-1.03164
-0.909673
-0.96435
-1.3178
5.1477
101.772
106.857
0.161033
-0.0580918
0.0142721
1.63938
-0.748387
-1.28373
-2.22095
-3.09064
-3.20026
-2.42712
-1.69588
-1.27431
-1.05245
-0.949205
-0.999714
-1.30559
3.01166
105.319
36.0556
-0.154975
-0.0793359
-0.0096342
-0.210914
-0.720342
-1.27906
-1.91116
-2.34645
-1.6795
-1.99341
-1.48872
-1.18213
-1.01003
-0.922769
-0.939878
-1.10589
0.76552
108.82
2.92262
0.018245
-0.116501
-0.0531437
-0.183392
-0.654342
-0.955007
-1.78196
-1.44339
-0.338075
-1.62259
-1.27279
-1.05255
-0.926334
-0.856261
-0.843802
-0.89512
-0.304176
108.29
3.57852
0.478877
-0.165403
-0.107066
-0.251118
-0.51321
-0.271561
-1.44996
-1.94956
-1.15946
-1.32161
-1.06589
-0.910477
-0.824888
-0.779008
-0.758454
-0.713997
-0.524768
67.579
3.51946
0.0390167
-0.217506
-0.160874
-0.399166
-0.0398392
-0.115441
-0.221932
-1.54575
-1.28754
-1.04707
-0.87701
-0.77045
-0.721405
-0.709181
-0.724076
-0.57697
6.8833
6.33085
3.44089
-0.289749
-0.269713
-0.211151
-0.604068
-0.707436
0.0600843
0.199299
-0.663418
-1.01034
-0.835891
-0.710958
-0.637439
-0.621752
-0.647629
-0.728815
0.0882036
25.4396
0.890159
0.449329
-0.346055
-0.318586
-0.258916
-0.889399
-0.970506
-0.365357
0.510576
0.819386
-0.818585
-0.669788
-0.565642
-0.51641
-0.524491
-0.582153
-0.715894
-0.00775901
26.1783
2.75731
-0.456895
-0.386071
-0.35904
-0.304278
-0.978881
-1.2514
-1.09101
0.348913
1.92585
0.227175
-0.518353
-0.428599
-0.404518
-0.436735
-0.508383
-0.65554
-0.529005
27.1299
9.90099
-0.454907
-0.417152
-0.388006
-0.345547
0.350374
-0.962505
-1.23068
-1.06854
2.32919
4.01661
-0.0257355
-0.254679
-0.30788
-0.363724
-0.430347
-0.563634
-0.673731
26.7057
8.62447
-0.462952
-0.435312
-0.408933
-0.380596
0.196106
0.219245
-0.959085
-1.14263
-0.280409
7.68094
8.71735
4.84043
0.660345
-0.317444
-0.37282
-0.455527
-0.52894
5.00081
0.515911
-0.471052
-0.444779
-0.42448
-0.407122
-0.141083
0.187539
-1.12994
-1.11755
-0.803651
2.62725
10.2872
10.433
9.7838
-0.205791
-0.322591
-0.368546
3.29746
-0.558879
-0.540784
-0.469066
-0.450046
-0.436498
-0.426524
-1.53056
-1.56754
-1.39142
-1.03956
-0.755355
-0.587621
4.30055
10.8401
10.8423
6.56163
-0.246511
-0.205735
5.35948
0.379792
-0.491315
-0.459948
-0.453201
-0.446276
-0.441794
-1.39762
-1.35908
-1.18158
-0.907076
-0.667406
-0.512552
-0.481354
6.7539
11.1239
11.1647
-0.00700508
-0.0145161
5.56267
1.10368
-0.45577
-0.452808
-0.457386
-0.455713
-0.455055
-1.04534
-1.04624
-0.927117
-0.736117
-0.555542
-0.435814
-0.403009
-0.428689
9.63819
11.2396
4.91177
3.4291
2.30449
-0.163341
-0.441723
-0.452647
-0.464373
-0.46605
-0.467948
-0.742298
-0.751842
-0.680798
-0.560155
-0.440151
-0.360601
-0.355659
-0.393109
-0.473713
7.13413
11.0489
7.95429
-0.385371
-0.4153
-0.447064
-0.458317
-0.474531
-0.478223
-0.481676
-0.509658
-0.517584
-0.477856
-0.407019
-0.335515
-0.291802
-0.313119
-0.349704
-0.460978
-0.247887
11.3989
-0.287987
-0.416883
-0.420313
-0.461848
-0.468641
-0.488137
-0.493164
-0.497405
-0.341129
-0.34581
-0.323951
-0.284352
-0.246645
-0.229698
-0.265981
-0.301644
-0.409912
-0.214642
10.7801
-0.409786
-0.447426
-0.422683
-0.48147
-0.483946
-0.505018
-0.510912
-0.515328
-0.220452
-0.222884
-0.210829
-0.18937
-0.172377
-0.172218
-0.214448
-0.255079
-0.335796
-0.311868
1.00794
-0.344357
-0.478867
-0.426345
-0.503509
-0.502348
-0.522728
-0.529078
-0.533184
-0.132993
-0.13421
-0.128035
-0.116571
-0.110217
-0.116408
-0.159093
-0.206195
-0.266526
-0.249574
-0.186033
-0.257321
-0.520908
-0.44324
-0.524193
-0.521569
-0.538925
-0.545357
-0.548886
-0.0669121
-0.0678045
-0.0658449
-0.0612963
-0.0593543
-0.0623869
-0.102692
-0.157666
-0.223187
-0.327142
0.392959
-0.265822
-0.573383
-0.482647
-0.54748
-0.54633
-0.559875
-0.566311
-0.569349
-0.0170247
-0.0164809
-0.0152194
-0.0121576
-0.0107426
-0.0172728
-0.0560693
-0.107208
-0.202136
-0.509987
0.205189
-0.414718
-0.639478
-0.548861
-0.588956
-0.588078
-0.599799
-0.606644
-0.609389
)
;

boundaryField
{
    leftWall
    {
        type            fixedFluxPressure;
        gradient        uniform 0;
        value           nonuniform List<scalar> 
50
(
703.491
703.467
703.375
703.215
702.905
702.376
701.762
702.111
703.505
651.718
28.6088
3.30789
3.25516
3.17203
3.06006
2.91995
2.76656
2.61655
2.47717
2.34323
2.21313
2.08635
1.96097
1.83558
1.71018
1.5854
1.46156
1.33897
1.21821
1.1001
0.985721
0.876239
0.7728
0.676353
0.587582
0.506937
0.43448
0.369941
0.31298
0.263157
0.219904
0.182542
0.150333
0.122519
0.0983541
0.0771193
0.0581804
0.0407449
0.0247289
0.00679197
)
;
    }
    rightWall
    {
        type            fixedFluxPressure;
        gradient        uniform 0;
        value           nonuniform List<scalar> 
50
(
1296.47
1288.37
1273.85
1256.7
1237.95
1218.43
1196.04
1171.91
1128.29
1136.91
1152.33
1174.1
1209.89
1187.47
409.671
11.2028
10.3776
8.49088
6.11763
3.78762
3.23344
3.16018
7.21188
10.9874
3.96478
0.00718907
0.0150288
0.018198
0.0142721
-0.0096342
-0.0531437
-0.107066
-0.160874
-0.211151
-0.258916
-0.304278
-0.345547
-0.380596
-0.407122
-0.426524
-0.441794
-0.455055
-0.467948
-0.481676
-0.497405
-0.515328
-0.533184
-0.548886
-0.569349
-0.609389
)
;
    }
    lowerWall
    {
        type            fixedFluxPressure;
        gradient        uniform 0;
        value           nonuniform List<scalar> 
62
(
703.491
703.411
703.403
703.37
703.18
702.81
702.357
701.981
701.781
701.762
701.881
702.097
702.391
702.747
703.15
703.575
703.975
704.285
704.385
704.282
704.338
704.85
705.442
705.442
705.188
705.749
706.515
707.032
707.342
707.395
707.044
700.663
764.848
904.702
501.766
1273.71
1280.86
1296.36
1304.29
1302.76
1316.3
1304.31
1243.3
1273.71
1232.61
1156.39
1083.83
1005.77
799.666
610.242
638.43
787.24
916.758
939.352
939.597
966.9
1000.11
1037.64
1088.51
1171.6
1266.77
1296.47
)
;
    }
    atmosphere
    {
        type            totalPressure;
        rho             rho;
        psi             none;
        gamma           1;
        p0              uniform 0;
        value           nonuniform List<scalar> 
46
(
0
0
0
0
0
0
0
0
0
0
0
0
0
0
0
0
0
0
0
0
0
0
0
0
0
0
0
0
0
0
0
0
-0.00324986
-0.0457055
-0.0764841
-0.180137
-0.518355
0
-0.564677
-0.69753
-0.58589
-0.625681
-0.621841
-0.635224
-0.642996
-0.645536
)
;
    }
    defaultFaces
    {
        type            empty;
    }
}


// ************************************************************************* //
