/*--------------------------------*- C++ -*----------------------------------*\
| =========                 |                                                 |
| \\      /  F ield         | OpenFOAM: The Open Source CFD Toolbox           |
|  \\    /   O peration     | Version:  2206                                  |
|   \\  /    A nd           | Website:  www.openfoam.com                      |
|    \\/     M anipulation  |                                                 |
\*---------------------------------------------------------------------------*/
FoamFile
{
    version     2.0;
    format      ascii;
    arch        "LSB;label=32;scalar=64";
    class       volScalarField;
    location    "0.675";
    object      alpha.water;
}
// * * * * * * * * * * * * * * * * * * * * * * * * * * * * * * * * * * * * * //

dimensions      [0 0 0 0 0 0 0];

internalField   nonuniform List<scalar> 
2268
(
0.999999
0.999999
1
1
1
1
1
1
1
1
1
1
1
1
1
0.999999
0.996658
0.951596
0.93785
0.990757
0.998867
0.998927
0.998927
0.999999
1
1
1
1
1
1
1
1
1
1
1
1
1
1
1
0.999525
0.968127
0.93801
0.944102
0.98268
0.982279
0.998927
0.999999
1
1
1
1
1
1
1
1
1
1
1
1
1
1
1
1
0.998731
0.963474
0.934507
0.934523
0.934656
0.998926
1
1
1
1
1
1
1
1
1
1
1
1
1
1
1
1
1
1
0.999751
0.975552
0.934494
0.979767
0.998532
1
1
1
1
1
1
1
1
1
1
1
1
1
1
1
1
1
1
1
0.999999
0.978133
1
0.999997
1
1
1
1
1
1
1
1
1
1
1
1
1
1
1
1
1
1
1
1
1
1
0.999974
1
1
1
1
1
0.999997
0.999998
1
1
1
1
1
1
1
1
1
1
1
1
1
1
1
0.999952
0.985376
0.958456
0.933687
0.912039
0.90853
0.918147
0.957475
0.998335
1
1
1
1
1
1
1
1
1
1
1
1
1
1
0.999962
0.0660741
0.0661984
0.103005
0.90239
0.904891
0.904894
0.904875
0.904785
0.904486
0.903569
0.90308
0.904589
0.905833
0.906758
0.907487
0.907844
0.913174
0.855613
0.831403
0.10374
0.204449
0.810047
0.900576
0.904891
0.904875
0.773751
0.737807
0.740133
0.768388
0.786668
0.815587
0.860653
0.890477
0.904252
0.913051
0.921301
0.92362
0.923611
0.351179
0.752835
0.863473
0.878254
0.337233
0.111802
0.072121
0.0610699
0.0754421
0.0996604
0.135272
0.179321
0.205762
0.286316
0.424967
0.630949
0.81602
0.92361
0.923631
0.357361
0.787033
0.741941
0.206879
0.0159395
0.00958646
0.00926806
0.00990627
0.0103617
0.0114549
0.0252004
0.176474
0.123927
0.0356768
0.0356768
0.0356768
0.214804
0.865601
0.92361
0.695895
0.748387
0.570744
0.0159618
0.0096024
0.00886199
0.00907465
0.00928731
0.00991728
0.0119504
0.269615
0.717874
0.749523
0.432645
0.0393096
0.0400104
0.0448318
0.313998
0.923396
0.681394
0.656925
0.0969219
0.0102477
0.0088109
0.00886199
0.00886199
0.00970449
0.0119553
0.019935
0.570854
0.769204
0.773291
0.775298
0.381081
0.0448318
0.0489487
0.174418
0.922359
0.653052
0.63015
0.0124056
0.00900226
0.00875981
0.0088109
0.00953638
0.0127522
0.0202434
0.290076
0.75905
0.773291
0.776094
0.775298
0.728128
0.131058
0.0530656
0.186313
0.918672
0.304427
0.599662
0.0384451
0.00875624
0.00875981
0.00873097
0.0122185
0.0228247
0.201626
0.610958
0.729736
0.763175
0.773986
0.776059
0.774334
0.377834
0.0616733
0.193917
0.897003
0.331474
0.316613
0.310721
0.326713
0.377906
0.483692
0.638014
0.808123
0.936795
1
1
1
1
1
1
1
1
1
1
1
1
1
1
6.79237e-06
3.10166e-05
0.0138068
0.0437119
0.0790191
0.117044
0.155567
0.218976
0.344199
0.528756
0.721746
0.856829
0.940738
1
1
1
1
1
1
1
1
1
0.999997
6.82845e-07
1.02732e-07
1.52472e-08
1.88216e-08
2.14967e-07
1.40478e-06
3.35115e-06
0.000856204
0.00921258
0.0357385
0.0940591
0.19463
0.327354
0.487126
0.665151
0.791032
0.866687
0.95722
0.990962
0.998608
0.999968
0.999988
0.999993
6.17873e-08
1.52472e-08
1.39035e-08
5.26668e-09
6.30466e-09
4.18793e-08
1.09684e-08
3.1912e-10
3.20461e-10
3.2835e-10
5.0362e-10
3.09867e-09
3.39135e-08
3.2206e-07
0.043595
0.113417
0.184284
0.27907
0.427994
0.54904
0.632041
0.806791
0.93103
4.48939e-09
2.65638e-08
3.16258e-08
4.50676e-09
4.21188e-10
1.37072e-09
1.85771e-10
3.2026e-10
3.20139e-10
3.21479e-10
3.28356e-10
5.0362e-10
3.09867e-09
3.9107e-08
3.21464e-07
2.34581e-06
1.9154e-06
1.18259e-05
7.68569e-05
0.000488444
0.0864613
0.266464
0.407184
2.94582e-10
3.83396e-09
1.21303e-08
3.08755e-09
1.32232e-10
6.47613e-11
4.85517e-11
4.38605e-10
2.97364e-08
4.72779e-08
5.0362e-10
8.72912e-09
2.31869e-05
4.57547e-05
4.45508e-05
2.98152e-06
1.75255e-07
1.3287e-06
1.18259e-05
5.43611e-05
0.000206868
0.00201366
0.0432709
2.9315e-11
8.56374e-11
4.04115e-10
4.30826e-10
8.11128e-11
9.99982e-12
1.03733e-11
1.17091e-10
5.18312e-08
1.10717e-07
3.07024e-08
1.7101e-07
1.47987e-05
2.61306e-05
6.85081e-06
8.34771e-07
4.92184e-08
1.75255e-07
1.32141e-05
4.86819e-05
6.89284e-05
0.000207642
0.000912928
4.20812e-12
5.5531e-12
2.96466e-12
1.19227e-11
9.59801e-12
7.11102e-12
9.71005e-12
1.03733e-11
3.97613e-08
1.13304e-07
1.14302e-07
2.57547e-07
8.4826e-07
8.34696e-08
2.73881e-09
5.41817e-09
3.56405e-08
4.92184e-08
1.02501e-06
7.9753e-05
0.000187323
0.000204402
0.000401481
6.82192e-13
1.00254e-12
6.93737e-13
7.54482e-13
2.75678e-12
6.90615e-12
1.0106e-11
2.34968e-11
7.49715e-09
4.42678e-08
1.03641e-07
3.56948e-07
4.86247e-07
2.73881e-09
3.43189e-10
4.44315e-09
3.7475e-08
3.84315e-08
5.70549e-08
4.27695e-05
0.000207642
0.000256671
0.000254117
5.25607e-14
7.30648e-14
4.77356e-14
2.29968e-13
1.96594e-12
6.30608e-12
1.03375e-11
1.87699e-11
3.20381e-10
6.74645e-10
3.06941e-08
1.46884e-07
2.63641e-07
1.83789e-08
2.15795e-10
3.43189e-10
1.74447e-07
2.27683e-06
2.93418e-06
4.2447e-06
8.56088e-05
0.000217685
0.000222425
3.16566e-15
2.57913e-15
2.83061e-15
9.75407e-14
1.17023e-12
4.57005e-12
9.68478e-12
1.08467e-11
3.57498e-10
1.44921e-09
1.83346e-09
2.46506e-09
4.88064e-09
8.60879e-09
1.40514e-10
2.15795e-10
4.91602e-07
1.61643e-06
7.45791e-07
1.19942e-05
0.000182462
0.000253399
0.000256244
2.01106e-16
8.15281e-17
2.85865e-16
3.53018e-14
4.68904e-13
2.27551e-12
7.46576e-12
7.83504e-12
2.10712e-10
2.74446e-09
2.70898e-09
2.18319e-09
1.28039e-09
8.22241e-10
5.65719e-11
9.47104e-09
1.14248e-07
2.94265e-08
4.40569e-08
2.95184e-05
0.000247052
0.000321661
0.000342056
9.69641e-18
7.17659e-19
4.27306e-17
9.46805e-15
1.29443e-13
7.98438e-13
4.65977e-12
7.96415e-12
8.62066e-11
2.41107e-09
3.22335e-09
3.44342e-09
2.7079e-09
2.31838e-10
5.46236e-11
1.52592e-09
1.31601e-10
2.63281e-09
6.22824e-09
1.74557e-05
0.000221408
0.000280213
0.000169042
1.37775e-19
-4.14551e-18
3.87811e-18
1.94132e-15
2.84654e-14
2.36993e-13
2.76538e-12
7.99489e-12
2.67011e-11
9.51298e-10
2.22874e-09
3.47411e-09
1.83219e-09
2.49575e-11
5.10862e-12
1.42334e-11
2.45154e-11
1.31601e-10
1.71025e-09
5.67477e-06
7.48927e-05
0.000111824
3.65858e-05
-1.798e-18
-7.79202e-18
3.40243e-20
3.19837e-16
5.38073e-15
6.96023e-14
1.5797e-12
6.98763e-12
1.03511e-11
1.07249e-10
6.77318e-10
1.83809e-09
3.67657e-10
2.0001e-12
1.53873e-12
2.50102e-12
4.65334e-12
1.72808e-11
2.10593e-08
3.03894e-07
1.88659e-07
2.25317e-06
6.5583e-06
-2.86396e-18
-6.67576e-18
-2.48618e-18
4.17982e-17
8.69752e-16
1.98359e-14
7.08892e-13
4.34491e-12
6.08239e-12
8.35611e-12
6.87086e-11
2.59528e-10
1.49626e-11
8.19456e-13
8.82949e-13
9.71493e-13
6.71366e-12
3.08489e-11
9.09787e-10
1.62013e-09
1.93363e-08
1.88659e-07
2.12205e-06
-2.62391e-18
-4.70872e-18
-3.91902e-18
3.40708e-18
1.18447e-16
5.04049e-15
2.14165e-13
1.69065e-12
3.04403e-12
2.57163e-12
4.1331e-12
9.12939e-12
7.11615e-13
3.06824e-13
2.85213e-13
2.57685e-13
3.43936e-12
1.58004e-11
2.06007e-11
1.50998e-10
2.40943e-09
4.12368e-08
2.72648e-06
-2.0086e-18
-2.91527e-18
-3.58312e-18
6.56856e-20
1.36468e-17
1.09576e-15
4.36293e-14
3.93588e-13
1.00318e-12
1.10136e-12
1.03898e-12
6.62717e-13
1.62183e-13
6.99378e-14
3.78072e-14
3.62795e-14
6.9115e-13
5.64691e-12
1.89541e-11
3.25999e-11
3.57771e-10
7.60677e-09
3.03811e-06
-1.36589e-18
-1.59758e-18
-2.49198e-18
-4.07794e-20
1.41748e-18
2.00089e-16
6.76528e-15
6.14135e-14
2.12196e-13
3.72689e-13
3.99101e-13
1.59942e-13
4.39638e-14
9.14302e-15
2.51096e-15
3.53169e-15
8.01204e-14
1.47271e-12
1.31548e-11
3.82767e-11
9.45798e-11
2.01776e-09
2.68507e-07
-8.36169e-19
-7.73246e-19
-1.43464e-18
-1.40659e-19
1.51291e-19
3.00185e-17
9.11882e-16
8.36612e-15
3.45514e-14
7.98211e-14
1.03629e-13
3.95756e-14
1.0259e-14
1.2052e-15
1.8205e-16
3.53415e-16
9.15606e-15
2.67219e-13
5.21616e-12
3.24341e-11
6.25013e-11
1.515e-10
2.40186e-09
-4.61825e-19
-3.29257e-19
-7.0503e-19
-1.15168e-19
1.6545e-20
3.68062e-18
1.15807e-16
1.16596e-15
5.11034e-15
1.10552e-14
1.43912e-14
7.05397e-15
2.00684e-15
2.41974e-16
1.76974e-17
3.77063e-17
1.23683e-15
4.02758e-14
1.19369e-12
1.60049e-11
6.80021e-11
1.3693e-10
2.90035e-10
-2.30112e-19
-1.22979e-19
-2.99288e-19
-6.29305e-20
1.57207e-21
3.71624e-19
1.39528e-17
1.59057e-16
6.84775e-16
1.24769e-15
1.39209e-15
9.05497e-16
3.16335e-16
4.36073e-17
5.57736e-19
3.02158e-18
1.70668e-16
5.94197e-15
1.89487e-13
4.19969e-12
3.63451e-11
1.05614e-10
6.1395e-11
-1.03451e-19
-4.0273e-20
-1.10433e-19
-2.67913e-20
6.32483e-23
3.04592e-20
1.47953e-18
1.89456e-17
7.75377e-17
1.30508e-16
1.36923e-16
9.67311e-17
3.48548e-17
2.99255e-18
-3.49906e-19
4.76168e-20
2.01017e-17
8.45345e-16
2.48881e-14
6.14556e-13
8.5045e-12
4.13255e-11
1.52666e-11
-4.20036e-20
-1.15963e-20
-3.56257e-20
-9.44896e-21
0
1.99091e-21
1.22988e-19
1.75027e-18
6.92246e-18
1.16602e-17
1.26825e-17
8.15507e-18
1.911e-18
3.10147e-20
-1.63452e-18
-6.79365e-19
1.73785e-18
1.08441e-16
3.15393e-15
6.28216e-14
9.62163e-13
7.2078e-12
1.21311e-11
-1.54326e-20
-2.95403e-21
-1.01166e-20
-2.85275e-21
-5.79356e-24
1.08256e-22
7.57664e-21
1.1715e-19
4.6682e-19
7.99747e-19
8.70593e-19
4.17463e-19
2.09795e-20
-6.61522e-19
-1.81846e-18
-1.08625e-18
-1.76467e-37
1.18241e-17
4.21323e-16
7.09738e-15
8.29371e-14
7.05291e-13
4.53377e-12
-5.1456e-21
-6.71892e-22
-2.54827e-21
-7.52785e-22
-4.04402e-24
5.13279e-24
3.77217e-22
6.0493e-21
2.47214e-20
4.20839e-20
3.90931e-20
4.45629e-21
-1.05903e-19
-7.72905e-19
-1.34e-18
-8.97196e-19
-2.69932e-20
1.09706e-18
5.79671e-17
1.08611e-15
1.04408e-14
7.15714e-14
6.19709e-13
-1.56249e-21
-1.38078e-22
-5.74062e-22
-1.76266e-22
-1.82456e-24
9.4623e-26
1.68434e-23
2.79802e-22
1.14815e-21
1.71279e-21
3.30489e-22
-7.93894e-21
-1.50158e-19
-5.10941e-19
-7.51072e-19
-5.31159e-19
-6.75966e-20
7.7884e-20
7.68429e-18
1.89417e-16
1.94724e-15
1.0684e-14
5.47706e-14
-4.33793e-22
-2.60144e-23
-1.16598e-22
-3.70616e-23
-6.28414e-25
-1.65655e-42
4.27962e-25
1.0817e-23
3.86417e-23
1.19658e-23
-3.33549e-22
-1.60343e-20
-9.43343e-20
-2.49278e-19
-3.3842e-19
-2.47302e-19
-5.01514e-20
0
9.89012e-19
3.33736e-17
4.10632e-16
1.9635e-15
5.07532e-15
-1.10551e-22
-4.5741e-24
-2.15184e-23
-7.06564e-24
-1.78016e-25
-5.34959e-26
3.24691e-27
7.12475e-26
2.92429e-25
-2.90111e-23
-1.07374e-21
-9.68387e-21
-4.18286e-20
-9.73882e-20
-1.26459e-19
-9.44497e-20
-2.48505e-20
-8.63695e-24
1.3479e-19
6.18686e-18
8.37906e-17
3.80631e-16
4.84917e-16
-2.59594e-23
-7.66945e-25
-3.63421e-24
-1.23149e-24
-4.36097e-26
-3.97949e-26
-1.23318e-25
-2.81841e-25
-3.63365e-24
-5.89952e-23
-6.23028e-22
-3.96932e-21
-1.46769e-20
-3.17094e-20
-4.00304e-20
-3.03353e-20
-9.39672e-21
-6.39453e-22
1.89193e-20
1.13951e-18
1.50455e-17
6.83092e-17
5.35726e-17
-5.6355e-24
-1.25504e-25
-5.65391e-25
-1.97623e-25
-9.56465e-27
-1.71055e-26
-8.92738e-26
-4.31785e-25
-3.36008e-24
-3.08428e-23
-2.38847e-22
-1.2755e-21
-4.28968e-21
-8.81975e-21
-1.0908e-20
-8.33834e-21
-2.87191e-21
-3.06702e-22
2.16888e-21
1.65911e-19
2.18827e-18
1.07915e-17
8.10943e-18
-1.1342e-24
-2.04205e-26
-8.15233e-26
-2.93803e-26
-1.92255e-27
-5.53658e-27
-3.54956e-26
-2.03149e-25
-1.43868e-24
-1.08503e-23
-7.1368e-23
-3.41199e-22
-1.07555e-21
-2.13245e-21
-2.59229e-21
-1.98853e-21
-7.337e-22
-9.69779e-23
1.56853e-22
1.56703e-20
2.50151e-19
1.59598e-18
1.53516e-18
-2.12108e-25
-3.32817e-27
-1.09577e-26
-4.06894e-27
-3.59327e-28
-1.47007e-27
-1.05243e-26
-6.53638e-26
-4.42104e-25
-2.99595e-24
-1.77459e-23
-7.85262e-23
-2.35869e-22
-4.54159e-22
-5.43101e-22
-4.16024e-22
-1.60202e-22
-2.4038e-23
4.72709e-24
9.48736e-22
2.31554e-20
2.0931e-19
2.42659e-19
-3.69265e-26
-5.40236e-28
-1.38071e-27
-5.27615e-28
-6.29346e-29
-3.34187e-28
-2.55702e-27
-1.66518e-26
-1.09436e-25
-6.91876e-25
-3.80419e-24
-1.58804e-23
-4.58868e-23
-8.61076e-23
-1.01219e-22
-7.70431e-23
-3.03555e-23
-4.93606e-24
-1.06863e-40
4.40285e-23
1.74423e-21
2.19854e-20
2.30662e-20
-5.99345e-27
-8.60894e-29
-1.64001e-28
-6.43692e-29
-1.03673e-29
-6.67798e-29
-5.33067e-28
-3.57483e-27
-2.30137e-26
-1.38418e-25
-7.19095e-25
-2.86484e-24
-8.00722e-24
-1.46641e-23
-1.69115e-23
-1.27241e-23
-5.04507e-24
-8.60139e-25
0
1.81478e-24
9.99942e-23
1.57564e-21
1.30819e-21
-9.08067e-28
-1.32407e-29
-1.8466e-29
-7.4246e-30
-1.60923e-30
-1.19502e-29
-9.80558e-29
-6.69829e-28
-4.24159e-27
-2.45455e-26
-1.21819e-25
-4.66534e-25
-1.26515e-24
-2.26108e-24
-2.55123e-24
-1.88674e-24
-7.41541e-25
-1.28822e-25
-3.84635e-27
6.67758e-26
4.11518e-24
7.53993e-23
5.60304e-23
-1.28596e-28
-1.93921e-30
-1.98187e-30
-8.13666e-31
-2.35737e-31
-1.94263e-30
-1.62267e-29
-1.12103e-28
-6.99764e-28
-3.92298e-27
-1.87328e-26
-6.92843e-26
-1.82575e-25
-3.18138e-25
-3.50045e-25
-2.52953e-25
-9.71486e-26
-1.67432e-26
-7.86684e-28
2.24612e-27
1.33759e-25
2.82981e-24
2.10089e-24
-1.70487e-29
-2.67949e-31
-2.03817e-31
-8.51422e-32
-3.26575e-32
-2.9023e-31
-2.45153e-30
-1.7042e-29
-1.04973e-28
-5.72625e-28
-2.6435e-27
-9.47062e-27
-2.4268e-26
-4.11737e-26
-4.4026e-26
-3.09088e-26
-1.14464e-26
-1.90908e-27
-1.05146e-28
7.3774e-29
3.92189e-27
8.39748e-26
1.51172e-25
-2.12056e-30
-3.46688e-32
-2.018e-32
-8.54806e-33
-4.2896e-33
-4.02387e-32
-3.42116e-31
-2.38409e-30
-1.44986e-29
-7.71813e-29
-3.45621e-28
-1.20184e-27
-2.99548e-27
-4.94149e-27
-5.11869e-27
-3.47327e-27
-1.22573e-27
-1.93542e-28
-1.10185e-29
2.23653e-30
1.10165e-28
2.12127e-27
2.54322e-26
-2.48286e-31
-4.1763e-33
-1.93092e-33
-8.27146e-34
-5.3576e-34
-5.21985e-33
-4.45242e-32
-3.10133e-31
-1.86264e-30
-9.69602e-30
-4.22198e-29
-1.42715e-28
-3.46018e-28
-5.54314e-28
-5.54816e-28
-3.62344e-28
-1.20662e-28
-1.771e-29
-9.68605e-31
5.35132e-32
2.97242e-30
5.35446e-29
2.5858e-27
-2.75008e-32
-4.69605e-34
-1.79036e-34
-7.74482e-35
-6.38082e-35
-6.37969e-34
-5.44647e-33
-3.78367e-32
-2.24471e-31
-1.14432e-30
-4.85447e-30
-1.59706e-29
-3.76714e-29
-5.85505e-29
-5.65199e-29
-3.54155e-29
-1.10407e-29
-1.48359e-30
-7.40326e-32
1.02029e-33
7.89171e-32
1.13824e-30
6.79522e-29
-2.8984e-33
-4.86496e-35
-1.61094e-35
-7.03871e-36
-7.26702e-36
-7.39128e-35
-6.3048e-34
-4.36124e-33
-2.55634e-32
-1.27787e-31
-5.28997e-31
-1.69554e-30
-3.89193e-30
-5.86489e-30
-5.45163e-30
-3.26814e-30
-9.45605e-31
-1.14023e-31
-4.85804e-33
3.57868e-36
1.05451e-33
1.26976e-32
3.69581e-31
0.999874
0.999543
0.999986
0.900059
0.99999
0.999989
0.999988
0.996982
0.99999
0.999987
0.999986
0.999869
0.973781
0.903779
0.738775
0.599478
0.420522
0.199913
0.0613567
0.056327
0.0620207
0.0619883
0.0501984
0.0501984
0.0208479
0.0553426
0.0501984
0.0576523
0.017617
0.0740608
0.0696263
0.0572671
0.00196907
0.0552372
0.0832059
0.0205214
0.000262692
0.0380014
0.0845405
0.00643698
0.000251101
0.0226653
0.0845244
0.0569208
0.000255454
0.00953005
0.079935
0.0775349
0.000145263
0.0145829
0.0761258
0.0702505
4.90264e-05
0.0151022
0.0738708
0.0291654
2.65674e-05
0.0185048
0.0562522
0.0125351
0.000570496
0.0115166
0.0145485
0.00771349
0.000383375
0.000843497
0.00019658
0.000981612
4.74005e-05
3.43088e-05
9.5391e-05
0.00320392
4.24725e-07
4.00503e-06
5.61927e-05
0.0443087
5.55301e-08
2.00438e-06
0.00277581
0.0787716
5.95641e-09
4.57223e-07
0.00333379
0.0226643
5.31261e-10
3.45163e-07
0.000719672
0.000155251
5.78838e-11
3.98685e-09
5.95469e-07
1.17514e-05
1.15664e-11
3.33225e-10
5.28857e-08
7.01734e-07
3.01691e-12
2.55598e-11
3.9724e-09
3.41109e-08
1.98844e-12
3.60325e-12
2.57615e-10
1.45623e-09
1.17097e-12
3.09669e-12
2.37565e-11
8.47302e-11
2.42814e-13
2.27417e-12
5.19662e-12
2.84596e-11
5.57537e-14
8.44148e-13
6.28313e-12
2.6287e-11
2.21015e-14
3.4369e-13
2.96066e-12
6.4565e-12
1.08588e-14
1.61309e-13
7.02947e-13
4.27203e-13
4.58093e-15
5.54372e-14
2.29952e-13
2.33508e-13
1.0287e-15
1.07021e-14
9.61621e-14
4.96725e-13
7.52007e-17
1.20708e-15
4.60609e-14
9.72641e-13
1.52426e-18
1.11105e-16
1.42867e-14
2.64476e-13
2.99402e-20
7.3535e-18
1.98317e-15
5.28649e-14
1.48172e-21
1.6913e-19
2.23974e-16
7.16456e-15
6.74672e-23
1.36222e-21
4.43574e-17
8.39811e-16
1.55553e-24
8.36338e-23
6.06891e-18
1.11014e-16
2.68251e-26
3.69368e-24
4.27106e-19
4.40749e-17
2.98113e-28
6.71599e-25
1.61087e-20
1.76175e-18
1.9504e-30
2.47685e-26
2.29938e-23
5.95393e-22
0.275019
0.256815
0.0295921
0.0099851
0.00875475
0.010456
0.084511
0.196022
0.461745
0.611576
0.433804
0.447474
0.723224
0.773986
0.774339
0.528656
0.0552181
0.159496
0.73561
0.640269
0.443014
0.18361
0.0408088
0.0584309
0.324617
0.50337
0.481666
0.448218
0.260807
0.155492
0.143
0.33737
0.455269
0.328449
0.149452
0.0307305
0.109552
0.558772
0.999753
0.938869
0.858823
0.741311
0.812854
0.811117
0.552616
0.342398
0.328413
0.32824
0.261771
0.120108
0.00601959
0.00592523
0.00595375
0.00597235
0.00849203
0.0379975
0.415262
0.66998
0.828097
0.886337
0.886199
0.411032
0.284484
0.5016
0.717978
0.743558
0.765742
0.684186
0.284078
0.0114265
0.0059282
0.0059217
0.00597416
0.00643003
0.00786445
0.3375
0.198709
0.735117
0.823045
0.410733
0.40764
0.523252
0.758256
0.766871
0.766871
0.766871
0.765742
0.693442
0.363003
0.0284877
0.00597416
0.00716471
0.00766302
0.0083332
0.325476
0.131123
0.64077
0.79228
0.639422
0.605659
0.532584
0.488447
0.670465
0.766871
0.765742
0.613509
0.513478
0.564051
0.455737
0.477265
0.542171
0.116684
0.00857903
0.414873
0.369671
0.673074
0.715395
0.661817
0.474088
0.0849142
0.0108098
0.212227
0.759483
0.676034
0.227488
0.228549
0.233749
0.495338
0.644603
0.644434
0.364455
0.0104045
0.536708
0.251158
0.378675
0.412939
0.460128
0.232651
0.00849695
0.00446373
0.0158755
0.358776
0.670535
0.268688
0.227365
0.231795
0.236616
0.30534
0.296991
0.0176668
0.0121647
0.733394
0.0150724
0.00340558
0.00537156
0.0241484
0.18773
0.00446373
0.00152883
0.00423782
0.121671
0.582267
0.657691
0.389048
0.249479
0.444587
0.45806
0.116108
0.0670817
0.166801
0.88078
0.00340558
0.00311041
0.00340557
0.0247376
0.122537
0.0311487
0.000396552
0.00100287
0.00460513
0.229868
0.681356
0.718127
0.740977
0.875274
0.876315
0.854688
0.774033
0.838185
0.925241
0.00330127
0.00282347
0.0031104
0.0424458
0.174608
0.0480486
8.19962e-05
3.34038e-05
0.000130851
0.000577209
0.189758
0.635773
0.788287
0.835409
0.87829
0.907695
0.920789
0.925063
0.925279
0.00337138
0.00263041
0.00282311
0.0621678
0.200106
0.0764157
1.89796e-05
6.46511e-06
4.13462e-06
-4.06486e-06
-1.33039e-05
5.74196e-06
0.079022
0.189005
0.290442
0.445049
0.628493
0.864738
0.925063
0.00231182
0.00248457
0.00262953
0.0744164
0.200106
0.121409
6.50005e-06
4.44788e-06
4.83141e-06
5.10225e-06
6.07614e-06
5.27613e-06
3.39653e-06
9.59208e-06
4.74594e-05
0.000263736
0.0013172
0.238812
0.796544
0.00215191
0.00241251
0.00402549
0.13486
0.200106
0.0971203
4.40961e-06
4.06407e-06
4.525e-06
6.03004e-06
6.39516e-06
3.83171e-06
1.82512e-06
1.31243e-06
2.50473e-06
4.04577e-05
0.000262952
0.00131134
0.100353
0.00207287
0.00215191
0.0454361
0.197229
0.198758
0.0202034
4.02108e-06
3.93617e-06
5.69474e-06
1.17271e-05
1.17411e-05
8.7905e-06
1.49678e-06
9.85607e-07
7.73267e-08
-5.67652e-08
3.76106e-05
0.00649659
0.00849074
0.00194918
0.00471676
0.136343
0.196816
0.0796436
4.0206e-06
3.93144e-06
3.92283e-06
3.93617e-06
1.11913e-05
1.1217e-05
1.08153e-05
6.89843e-06
1.31411e-06
3.57207e-08
3.65673e-08
0.000122153
0.0186403
0.0445194
0.0013541
0.106431
0.137754
0.0774656
2.33604e-05
3.93097e-06
3.92283e-06
3.93144e-06
4.9526e-06
1.22222e-06
5.60399e-07
4.04839e-06
2.95326e-07
9.84966e-07
4.28003e-07
3.65662e-08
0.00310442
0.00981072
0.0715691
0.0978403
0.109518
0.0907987
3.16509e-05
2.48962e-05
6.16323e-06
3.93144e-06
1.3284e-05
1.19778e-05
1.25626e-06
1.09379e-07
7.30166e-08
5.81015e-08
4.64451e-08
4.18382e-08
4.06501e-08
0.00700679
0.00690805
0.0729746
0.0999718
0.0952235
4.85474e-05
4.75187e-05
0.000174182
0.000175422
0.000149949
2.90853e-05
7.33679e-06
4.17207e-06
3.4565e-07
1.04116e-07
6.1322e-08
4.69023e-08
4.16774e-08
3.90458e-08
0.00418909
0.0120562
0.0817616
0.0832885
0.00573945
4.70159e-05
0.000205243
7.66682e-05
9.36833e-08
2.85873e-08
2.80405e-07
2.74825e-06
4.87865e-06
1.39605e-06
2.13267e-07
1.07424e-07
6.31313e-08
4.9627e-08
4.16774e-08
6.85577e-08
0.0501866
0.0875027
0.00849472
0.000208266
0.000278566
6.27643e-05
1.21236e-07
2.85873e-08
2.17609e-08
2.12769e-08
2.12769e-08
2.84432e-08
1.48311e-07
6.89942e-07
3.42415e-07
6.73507e-07
8.62891e-08
6.85577e-08
3.46763e-07
0.0775621
0.0875191
6.29731e-05
0.000171402
3.27979e-05
2.38871e-07
3.07479e-08
2.29112e-08
2.17489e-08
2.1348e-08
2.12706e-08
2.13228e-08
2.13752e-05
6.05235e-05
1.99512e-05
1.51176e-06
1.44073e-07
3.46763e-07
7.37869e-07
0.0290801
0.0874911
2.36329e-05
1.77303e-05
2.38567e-06
8.60275e-09
3.44795e-09
1.96493e-08
2.29127e-08
2.17489e-08
2.1348e-08
1.08476e-05
0.000118712
0.000127327
7.43581e-05
2.46589e-06
5.74192e-07
3.33646e-06
3.33163e-06
2.65623e-05
0.0868086
2.14969e-06
8.17908e-07
2.95989e-09
3.1549e-10
2.43677e-09
3.47565e-09
1.41741e-08
2.61193e-08
2.24667e-08
3.79989e-05
0.000127327
0.000127327
0.000100635
4.88792e-06
5.80416e-06
7.50096e-05
2.65623e-05
0.000149438
0.0795697
4.71421e-08
1.77882e-08
1.46231e-10
4.54464e-11
3.17355e-10
2.82402e-07
2.26925e-06
1.46037e-06
3.64887e-08
6.18476e-07
0.000105558
0.000127327
8.53236e-05
6.81868e-06
0.000425933
0.00443468
0.00182439
0.000247945
0.0771013
8.48568e-10
1.36146e-10
3.72267e-11
3.96519e-11
4.80254e-11
9.06542e-06
1.25762e-05
3.67646e-06
9.6545e-08
2.66506e-07
3.79477e-05
0.000126664
6.34116e-05
2.11875e-05
0.00296123
0.0073469
0.0073469
0.00284604
0.0778419
4.51143e-11
2.41176e-11
3.02952e-11
3.63188e-11
1.0318e-05
1.33107e-05
1.28823e-05
1.61355e-06
2.52576e-07
3.76877e-07
4.97262e-05
0.000124012
6.48079e-05
0.000311169
0.00657366
0.0073469
0.00714044
0.00598153
0.0779328
4.05651e-11
1.06494e-11
1.31897e-11
1.12424e-05
1.3292e-05
1.32112e-05
8.78039e-07
1.28074e-07
2.14189e-07
1.26489e-05
0.000115635
7.94916e-05
7.23668e-05
0.00100719
0.00630537
0.00402768
0.0013819
0.00620133
0.0715949
1.58658e-11
1.05967e-11
1.06822e-11
9.93549e-06
7.32932e-06
1.00155e-07
9.88932e-08
1.13033e-07
1.28074e-07
9.14972e-05
0.000115635
7.53816e-05
7.53816e-05
0.00164054
0.00225734
1.65196e-07
5.86957e-08
0.00179405
0.00448844
4.35273e-13
1.54644e-10
3.96269e-07
2.36711e-07
1.18937e-09
8.0446e-08
8.18708e-08
9.88932e-08
1.61316e-05
9.85628e-05
9.79027e-05
7.53816e-05
0.000507548
0.0020826
1.71904e-07
5.86957e-08
5.80343e-08
5.86957e-08
4.44043e-06
4.3813e-13
3.03805e-08
6.67703e-08
2.3974e-08
1.26876e-11
1.782e-07
1.01281e-07
1.13033e-07
2.55165e-05
9.76125e-05
8.35937e-05
0.000118127
0.00165291
0.00174818
4.53786e-07
1.15889e-06
5.80852e-08
5.80852e-08
0.0303646
2.88799e-10
2.9772e-09
7.73972e-10
1.506e-12
2.41959e-12
6.03498e-12
7.83241e-07
3.68162e-07
1.71491e-05
6.81476e-05
7.16833e-05
0.000750758
0.00163702
2.23412e-06
6.13191e-07
1.5941e-06
5.8034e-08
5.80852e-08
0.129929
1.00343e-10
8.81291e-11
2.40981e-11
4.12864e-13
1.75824e-12
2.41959e-12
7.67335e-06
4.34772e-06
5.31086e-06
5.81795e-06
0.00018467
0.00143954
0.0014289
2.79508e-06
1.64457e-06
7.6116e-07
5.80852e-08
0.000219653
0.130967
3.59593e-12
3.95797e-12
2.93372e-12
2.32539e-13
3.35463e-13
7.50839e-12
1.40106e-05
5.14211e-05
6.41089e-06
6.63692e-06
0.000129251
0.00136548
0.00167727
5.24513e-06
1.09423e-05
7.57904e-08
5.84038e-08
0.000912756
0.130967
7.17058e-13
6.54288e-13
2.47958e-13
2.19418e-13
2.29872e-13
1.31508e-10
4.59408e-05
5.77452e-05
8.35475e-06
7.81865e-06
1.98434e-05
0.00142662
0.00169151
0.000359469
1.08861e-05
2.97401e-07
5.98716e-08
0.0024952
0.130967
5.25911e-14
3.42778e-14
5.96803e-15
6.73321e-15
2.29104e-13
2.27321e-05
5.77452e-05
5.78005e-05
3.29086e-05
7.99884e-06
8.53048e-06
0.00100677
0.00169151
0.000723809
8.57406e-07
7.33702e-08
3.76419e-08
0.00417516
0.130626
7.24999e-15
5.68173e-15
5.34725e-15
5.86802e-15
4.71872e-12
5.06555e-05
5.78005e-05
5.78059e-05
5.78005e-05
8.93695e-06
1.02197e-05
0.000346488
0.000875684
0.00023142
5.8181e-07
3.76419e-08
9.47364e-09
0.0052093
0.0869505
2.26388e-15
2.21666e-15
2.0013e-15
1.20599e-14
1.82733e-06
5.52734e-05
5.78059e-05
5.78061e-05
5.78059e-05
3.26158e-05
1.18371e-05
1.99416e-05
5.43151e-05
7.70967e-07
6.40644e-08
9.47364e-09
4.22236e-09
0.00176355
2.0495e-12
1.39996e-15
1.40522e-15
1.58585e-15
2.98833e-13
1.10484e-06
3.52494e-05
5.7806e-05
5.7806e-05
5.7806e-05
4.94096e-05
1.35722e-05
9.3747e-07
2.08474e-06
1.25922e-06
5.49419e-07
8.28384e-08
1.6869e-10
2.90021e-12
1.5545e-13
3.74219e-17
1.20638e-14
1.86335e-13
1.08961e-11
3.63294e-08
7.53656e-06
3.75066e-05
4.71068e-05
2.62535e-05
1.31855e-05
5.82216e-06
6.074e-07
1.68931e-06
1.2833e-06
8.71831e-08
2.76612e-10
9.25231e-12
1.54103e-13
1.59419e-15
3.02285e-18
5.65186e-14
2.25467e-10
2.30688e-09
4.05266e-15
3.19961e-13
3.17052e-08
1.23556e-06
1.85873e-08
2.72781e-08
4.78343e-08
4.75973e-07
1.70898e-06
6.69337e-07
4.52463e-10
5.81643e-12
4.6946e-14
2.46791e-16
7.61169e-20
3.24145e-21
2.61593e-15
6.37904e-14
1.04184e-19
0
4.07622e-31
3.75991e-27
2.17557e-11
1.09513e-08
1.91265e-08
3.12933e-08
8.47106e-07
1.30619e-06
2.86097e-08
-1.80869e-13
-9.88881e-14
-3.06781e-18
-7.17841e-19
0
)
;

boundaryField
{
    leftWall
    {
        type            zeroGradient;
    }
    rightWall
    {
        type            zeroGradient;
    }
    lowerWall
    {
        type            zeroGradient;
    }
    atmosphere
    {
        type            inletOutlet;
        inletValue      uniform 0;
        value           nonuniform List<scalar> 
46
(
-2.8984e-33
-4.86496e-35
-1.61094e-35
-7.03871e-36
-7.26702e-36
-7.39128e-35
-6.3048e-34
-4.36124e-33
-2.55634e-32
-1.27787e-31
-5.28997e-31
-1.69554e-30
-3.89193e-30
-5.86489e-30
-5.45163e-30
-3.26814e-30
-9.45605e-31
-1.14023e-31
-4.85804e-33
3.57868e-36
1.05451e-33
1.26976e-32
3.69581e-31
1.9504e-30
2.47685e-26
0
0
0
0
0
0
0
0
0
2.17557e-11
1.09513e-08
1.91265e-08
3.12933e-08
0
0
0
0
0
0
0
0
)
;
    }
    defaultFaces
    {
        type            empty;
    }
}


// ************************************************************************* //
