/*--------------------------------*- C++ -*----------------------------------*\
| =========                 |                                                 |
| \\      /  F ield         | OpenFOAM: The Open Source CFD Toolbox           |
|  \\    /   O peration     | Version:  2206                                  |
|   \\  /    A nd           | Website:  www.openfoam.com                      |
|    \\/     M anipulation  |                                                 |
\*---------------------------------------------------------------------------*/
FoamFile
{
    version     2.0;
    format      ascii;
    arch        "LSB;label=32;scalar=64";
    class       surfaceScalarField;
    location    "0.675";
    object      alphaPhi0.water;
}
// * * * * * * * * * * * * * * * * * * * * * * * * * * * * * * * * * * * * * //

dimensions      [0 3 -1 0 0 0 0];

oriented        oriented;

internalField   nonuniform List<scalar> 
4432
(
-3.5401e-06
3.5401e-06
-7.08014e-06
3.54005e-06
-9.19292e-06
2.11278e-06
-1.03617e-05
1.16877e-06
-1.04841e-05
1.22362e-07
-9.09421e-06
-1.38985e-06
-6.29836e-06
-2.79585e-06
-3.34579e-06
-2.95257e-06
-1.38474e-06
-1.96106e-06
-7.46153e-07
-6.38591e-07
-1.26907e-06
5.22911e-07
-2.65406e-06
1.38499e-06
-4.59243e-06
1.93838e-06
-6.9267e-06
2.33427e-06
-9.81116e-06
2.88446e-06
-1.30566e-05
3.24554e-06
-1.54803e-05
2.64102e-06
-1.71899e-05
2.23817e-06
-2.19428e-05
4.50501e-06
-2.81851e-05
5.40584e-06
-2.68688e-05
-1.31308e-06
-1.54402e-05
-1.14285e-05
-1.54402e-05
-4.43453e-06
7.97463e-06
-7.40783e-06
6.51336e-06
-8.94654e-06
3.65148e-06
-1.01379e-05
2.36014e-06
-1.05985e-05
5.82989e-07
-9.45548e-06
-2.53292e-06
-6.61859e-06
-5.63275e-06
-3.45856e-06
-6.11262e-06
-1.32981e-06
-4.08981e-06
-5.65181e-07
-1.40323e-06
-7.22061e-07
6.79797e-07
-1.44942e-06
2.11235e-06
-2.55517e-06
3.04414e-06
-3.98397e-06
3.76308e-06
-5.91012e-06
4.81061e-06
-8.80322e-06
6.13866e-06
-1.31148e-05
7.0365e-06
-1.76158e-05
7.79655e-06
-2.2193e-05
8.83135e-06
-2.3792e-05
6.18699e-06
-1.99349e-05
-5.11073e-06
-1.14696e-05
-1.95859e-05
-2.69098e-05
-3.54186e-06
1.15165e-05
-5.94495e-06
8.91646e-06
-7.6635e-06
5.37004e-06
-9.41184e-06
4.10847e-06
-1.04289e-05
1.60008e-06
-9.61526e-06
-3.34661e-06
-6.98297e-06
-8.26503e-06
-3.8838e-06
-9.21179e-06
-1.74103e-06
-6.23257e-06
-1.00447e-06
-2.13979e-06
-1.30346e-06
9.78791e-07
-2.09358e-06
2.90247e-06
-2.98701e-06
3.93758e-06
-3.78277e-06
4.55884e-06
-4.34693e-06
5.37478e-06
-4.95814e-06
6.74988e-06
-6.5393e-06
8.6177e-06
-9.27129e-06
1.06939e-05
-1.10882e-05
1.17989e-05
-1.14622e-05
6.51567e-06
-9.31405e-06
-7.30581e-06
-5.23805e-06
-2.37156e-05
-3.21479e-05
-2.12e-06
1.36365e-05
-3.80434e-06
1.06008e-05
-5.44237e-06
7.00806e-06
-7.07021e-06
5.73631e-06
-7.88026e-06
2.41013e-06
-7.20172e-06
-4.02515e-06
-5.43839e-06
-1.00284e-05
-3.48628e-06
-1.11639e-05
-2.10053e-06
-7.61831e-06
-1.65127e-06
-2.58905e-06
-2.06512e-06
1.39264e-06
-2.96687e-06
3.80421e-06
-3.94372e-06
4.91444e-06
-4.66061e-06
5.27573e-06
-4.96548e-06
5.67965e-06
-4.61743e-06
6.40183e-06
-3.69627e-06
7.69653e-06
-2.57902e-06
9.5767e-06
-1.09787e-06
1.03755e-05
1.95078e-07
5.63455e-06
5.368e-07
-7.69255e-06
8.79983e-07
-2.52496e-05
-3.13138e-05
-2.80362e-07
1.39169e-05
-5.48894e-07
1.08693e-05
-1.46469e-06
7.92385e-06
-1.99601e-06
6.26762e-06
-1.57104e-06
1.98517e-06
-7.22996e-07
-4.87319e-06
-6.61572e-07
-1.00898e-05
-1.241e-06
-1.05845e-05
-1.81059e-06
-7.04871e-06
-2.31509e-06
-2.08455e-06
-3.0112e-06
2.08875e-06
-3.91049e-06
4.7035e-06
-4.81513e-06
5.81908e-06
-5.42837e-06
5.88896e-06
-5.67109e-06
5.92237e-06
-5.34573e-06
6.07647e-06
-3.95987e-06
6.31069e-06
-1.23036e-06
6.84718e-06
2.68864e-06
6.4565e-06
6.021e-06
2.3021e-06
5.85535e-06
-7.98858e-06
3.59005e-06
-2.29843e-05
-2.77238e-05
2.13531e-06
1.17815e-05
3.72817e-06
9.27646e-06
4.64808e-06
7.00394e-06
6.01785e-06
4.89785e-06
7.54232e-06
4.60706e-07
7.79772e-06
-5.12859e-06
5.79338e-06
-8.08543e-06
2.54421e-06
-7.33529e-06
-6.56101e-07
-3.8484e-06
-2.69918e-06
-4.14734e-08
-3.98914e-06
3.37871e-06
-5.00396e-06
5.71831e-06
-5.77239e-06
6.58752e-06
-6.14713e-06
6.26368e-06
-6.19456e-06
5.9698e-06
-5.84654e-06
5.72845e-06
-4.79312e-06
5.25727e-06
-2.53716e-06
4.59121e-06
1.06423e-06
2.85511e-06
4.67566e-06
-1.30933e-06
5.39423e-06
-8.70715e-06
3.54645e-06
-2.11365e-05
-2.41771e-05
4.03775e-06
7.7438e-06
8.23848e-06
5.07572e-06
1.23041e-05
2.93832e-06
1.61564e-05
1.04559e-06
1.80725e-05
-1.45547e-06
1.60824e-05
-3.13872e-06
1.12242e-05
-3.22734e-06
5.65553e-06
-1.76658e-06
7.39834e-07
1.0673e-06
-2.69713e-06
3.39548e-06
-4.83442e-06
5.51599e-06
-6.13057e-06
7.01446e-06
-6.8179e-06
7.27485e-06
-6.88519e-06
6.33096e-06
-6.6667e-06
5.75131e-06
-6.19467e-06
5.25641e-06
-5.28138e-06
4.34398e-06
-3.64085e-06
2.95069e-06
-1.38702e-06
6.01287e-07
1.2097e-06
-3.90605e-06
2.2734e-06
-9.77086e-06
1.98868e-06
-2.08518e-05
-2.21888e-05
7.36543e-06
2.06843e-07
1.47973e-05
-2.32439e-06
1.97543e-05
-2.06327e-06
2.20976e-05
-1.30676e-06
2.10616e-05
-1.9123e-07
1.6624e-05
1.45464e-06
1.09514e-05
2.76859e-06
5.35053e-06
3.79414e-06
9.14525e-07
5.5033e-06
-2.36925e-06
6.67926e-06
-4.98943e-06
8.13617e-06
-6.85775e-06
8.88277e-06
-7.83545e-06
8.25255e-06
-7.74834e-06
6.24384e-06
-7.30664e-06
5.30961e-06
-6.65404e-06
4.60381e-06
-5.66499e-06
3.35493e-06
-4.168e-06
1.4537e-06
-2.62057e-06
-9.46138e-07
-1.26506e-06
-5.26156e-06
-7.56169e-07
-1.02798e-05
-7.33696e-07
-2.08742e-05
-2.29229e-05
3.71038e-06
-4.04779e-06
2.89374e-06
4.94208e-07
1.89864e-06
1.24526e-05
-4.88146e-05
5.17208e-05
-0.000101621
5.2812e-05
-0.000138107
3.64907e-05
-0.000155753
1.76521e-05
-0.000159458
3.7164e-06
-0.000156304
-3.12735e-06
-0.000150752
-5.47365e-06
-0.000143223
-7.28752e-06
-0.000131462
-1.17057e-05
-0.000119156
-1.24858e-05
-0.000107986
-1.15079e-05
-9.51099e-05
-1.30779e-05
-7.54329e-05
-1.97007e-05
-4.04268e-05
-3.50133e-05
-2.00646e-06
-3.88146e-05
-2.22907e-06
1.60858e-06
-9.91266e-06
-1.91976e-05
2.72054e-05
-8.25574e-05
8.17833e-05
-0.000132104
0.00010204
-0.000159966
8.068e-05
-0.000157132
3.36631e-05
-0.000145035
7.17918e-06
-0.000138628
-4.66697e-07
-0.0001365
-3.46413e-06
-0.000134076
-5.47292e-06
-0.00013081
-7.76155e-06
-0.000126571
-1.17086e-05
-0.000122332
-1.35273e-05
-0.000117795
-1.52382e-05
-0.000107454
-2.33161e-05
-9.09489e-05
-3.62688e-05
-6.34546e-05
-6.23759e-05
-2.58297e-05
-7.643e-05
-2.80486e-05
-2.54732e-05
-2.2779e-06
-7.87476e-05
7.62942e-05
-0.000119353
0.00012289
-0.00011119
9.20407e-05
-5.24562e-05
1.9742e-05
-2.36991e-05
5.62302e-06
-1.65402e-05
8.95862e-07
-1.56777e-05
-4.60834e-07
-1.63961e-05
-1.39115e-06
-1.83599e-05
-2.71757e-06
-2.07643e-05
-6.36397e-06
-1.86953e-05
-1.63866e-05
-2.06783e-05
-1.06782e-05
-3.1639e-05
-2.58261e-06
-4.9906e-05
-9.04143e-07
-6.97179e-05
-5.64777e-06
-7.00312e-05
-5.36317e-05
-3.72348e-05
-0.000109216
-6.52744e-05
-4.83869e-05
3.12043e-05
-8.64175e-05
0.000113359
-7.67227e-05
0.000107349
-1.88013e-05
2.88089e-05
-6.98269e-06
7.6976e-06
-3.18413e-06
1.62753e-06
-2.27464e-06
-2.9658e-07
-1.87713e-06
-1.14908e-06
-1.79872e-06
-1.52426e-06
-1.88631e-06
-2.16986e-06
-1.81228e-06
-5.18531e-06
7.23377e-06
-4.50464e-05
9.19527e-06
-3.53933e-05
6.84012e-06
-4.20094e-06
1.65208e-06
6.49994e-07
-9.87433e-06
2.13175e-06
-4.56142e-05
-7.15303e-06
-3.9371e-05
-0.000100782
-0.000104635
-6.06231e-05
9.05639e-05
-8.31992e-05
0.000133067
-2.55261e-05
4.53116e-05
-7.0091e-06
1.00146e-05
-2.80242e-06
3.28253e-06
-1.70622e-06
2.86415e-07
-9.67836e-07
-1.2963e-06
-4.08853e-07
-1.98581e-06
1.56297e-07
-2.38181e-06
2.83406e-06
-5.18564e-06
3.65895e-05
-3.37836e-05
5.83162e-05
-7.51543e-05
5.35127e-05
-6.32407e-05
1.66477e-05
-3.80209e-05
1.04407e-05
1.6092e-06
3.42086e-06
5.08538e-06
-1.10024e-05
3.0195e-06
-3.3547e-05
-5.27879e-05
-0.000138161
-4.16853e-05
0.000129915
-4.13668e-05
0.000135944
-7.14526e-06
2.16615e-05
-2.67147e-06
5.30603e-06
-1.241e-06
1.62983e-06
-5.26396e-07
-6.73119e-07
2.60202e-07
-2.32783e-06
1.02579e-06
-3.02733e-06
3.64852e-06
-5.3359e-06
2.00424e-05
-2.18996e-05
6.74587e-05
-7.51389e-05
7.41656e-05
-8.03723e-05
7.29493e-05
-6.06734e-05
6.83882e-05
-4.32104e-05
2.22847e-05
-9.43875e-06
1.17548e-05
1.13646e-05
1.5829e-06
8.84573e-06
-2.18034e-05
-2.35081e-05
-0.000159885
-3.40381e-05
9.75646e-05
-1.42175e-05
0.000122582
-2.51253e-06
1.17399e-05
-8.89482e-07
3.53729e-06
-9.12669e-08
6.78021e-07
7.97632e-07
-1.78425e-06
2.07201e-06
-3.85053e-06
4.48665e-06
-5.76182e-06
1.48916e-05
-1.61904e-05
6.455e-05
-5.80143e-05
7.91993e-05
-8.77169e-05
7.84856e-05
-7.83077e-05
7.74239e-05
-5.84928e-05
7.64353e-05
-4.10756e-05
5.23994e-05
-2.30583e-05
1.98729e-05
2.24414e-05
5.63898e-06
1.8639e-05
-8.8735e-06
-7.11022e-06
-0.000168459
-1.06819e-05
8.97376e-05
-4.23631e-06
0.000118482
-4.6242e-08
1.91141e-05
3.27825e-07
3.05569e-06
7.66455e-07
1.31724e-07
2.43365e-06
-3.60543e-06
5.99729e-06
-7.57345e-06
1.40892e-05
-1.43644e-05
5.28514e-05
-5.49842e-05
8.07278e-05
-7.58034e-05
7.83421e-05
-8.04089e-05
7.66221e-05
-7.42593e-05
7.72924e-05
-5.78631e-05
7.53987e-05
-3.80521e-05
7.70794e-05
-2.35939e-05
2.33274e-05
2.4036e-05
1.12178e-05
2.48229e-05
6.60877e-07
6.45284e-06
-0.000163972
4.65978e-06
-1.53036e-07
5.06496e-06
-6.63594e-07
3.45023e-06
-1.14763e-07
2.22956e-06
-9.37089e-08
1.04727e-06
-2.71683e-08
-2.55738e-07
2.58677e-07
-1.77079e-06
9.94504e-07
-3.92125e-06
2.30846e-06
-6.37153e-06
4.68094e-06
-8.34424e-06
8.65197e-06
-1.1174e-05
1.09659e-05
-1.48629e-05
1.25718e-05
-1.73179e-05
1.07075e-05
-1.66654e-05
5.59133e-06
-1.5742e-05
4.38614e-06
-1.48864e-05
3.74825e-06
-1.35521e-05
2.02059e-06
-1.09327e-05
-1.16567e-06
-8.3943e-06
-3.48452e-06
-7.20938e-06
-6.44647e-06
-7.58295e-06
-9.90618e-06
-1.30635e-05
-1.53937e-05
-1.25055e-05
-2.34808e-05
-1.5269e-07
-1.45418e-09
-8.209e-07
1.62591e-09
-2.59523e-06
-1.89433e-10
-3.97081e-06
-2.08756e-09
-5.05273e-06
-1.79821e-08
-6.03854e-06
-8.40259e-08
-7.5222e-06
-1.03686e-07
-1.03128e-05
-1.10403e-07
-1.40528e-05
-6.96103e-08
-1.72338e-05
-1.45668e-07
-1.77014e-05
1.06439e-06
-1.63707e-05
3.75882e-06
-1.46238e-05
4.46685e-06
-1.22051e-05
3.17271e-06
-1.2251e-05
4.43206e-06
-1.36715e-05
5.16869e-06
-1.41932e-05
2.54234e-06
-1.20912e-05
-3.26771e-06
-9.85143e-06
-5.72425e-06
-9.23385e-06
-7.06404e-06
-1.00497e-05
-9.09035e-06
-1.31708e-05
-1.22725e-05
-1.05414e-05
-1.51347e-05
-1.61655e-09
2.6607e-11
-1.13989e-11
-6.86348e-13
-2.02727e-10
7.92148e-13
-2.29378e-09
-9.65921e-13
-2.02315e-08
-9.36038e-11
-1.04026e-07
-4.6316e-10
-2.08521e-07
5.66515e-10
-5.96174e-07
-2.25551e-11
-2.35165e-06
-2.36758e-10
-5.51603e-06
-2.17276e-09
-9.56799e-06
-1.65804e-08
-1.39392e-05
-1.05126e-07
-1.81953e-05
-4.41212e-07
-2.08975e-05
-2.10778e-06
-1.72423e-05
-3.52126e-06
-1.21737e-05
-2.05859e-06
-8.19332e-06
-2.21323e-06
-5.09332e-06
-4.9745e-06
-4.92519e-06
-5.21481e-06
-6.19851e-06
-5.6094e-06
-6.50662e-06
-8.76326e-06
-7.84851e-06
-1.09304e-05
-1.02125e-05
-8.177e-06
9.11037e-12
2.85396e-12
-1.55883e-13
7.4774e-12
-8.98876e-13
7.12539e-13
-1.94559e-12
-1.35037e-13
-9.69753e-11
-8.8451e-14
-5.66863e-10
2.89682e-14
-1.9672e-12
2.60026e-13
-2.45178e-11
-9.47714e-17
-2.61217e-10
-5.97702e-14
-2.43353e-09
-4.52742e-13
-1.90135e-08
-4.39382e-13
-1.24132e-07
-7.68596e-12
-5.65205e-07
-1.4586e-10
-2.67249e-06
-5.3866e-10
-7.01177e-06
-4.38931e-09
-9.49312e-06
-2.27277e-08
-1.21056e-05
-1.16258e-07
-1.64052e-05
-5.05734e-07
-1.83322e-05
-1.65504e-06
-1.7669e-05
-2.81013e-06
-1.53815e-05
-7.62087e-06
-1.42962e-05
-1.16645e-05
-7.00631e-06
-1.77168e-05
1.51218e-12
1.36461e-13
4.52118e-12
1.08354e-12
3.65137e-14
1.68968e-12
3.32826e-15
7.68905e-14
-6.59632e-14
-3.89087e-14
-2.80158e-13
2.59329e-14
-1.52494e-15
-1.45313e-14
-2.62358e-15
8.23169e-16
-6.46434e-15
-5.33211e-14
-2.98572e-14
-4.31929e-13
-4.08616e-13
-6.65669e-14
-5.59164e-12
-2.55355e-12
-6.77955e-11
-8.42843e-11
-5.36238e-10
-7.29219e-11
-4.50453e-09
-4.73139e-10
-2.76602e-08
-9.3063e-11
-1.44178e-07
-2.70088e-10
-6.4818e-07
-4.32094e-09
-2.26556e-06
-5.23586e-08
-4.99853e-06
-2.59593e-07
-2.00496e-05
-1.83633e-06
-3.99939e-05
-6.17663e-06
-4.56682e-06
-4.47532e-05
5.25385e-14
9.65121e-15
5.10384e-13
4.07583e-14
1.95786e-13
8.10096e-14
1.48705e-14
6.76857e-14
5.98746e-15
2.03277e-15
2.16684e-14
7.80441e-16
4.32573e-15
8.56641e-16
-6.63187e-14
7.91845e-15
-5.44272e-13
5.70798e-13
1.12049e-13
2.4283e-12
-4.42407e-13
4.3728e-13
-1.63446e-11
6.86053e-12
-1.81223e-09
3.53669e-10
-2.17865e-09
4.79613e-10
-2.34035e-09
6.3819e-10
-3.24394e-10
4.53673e-11
-6.41284e-10
8.68966e-12
-5.07735e-09
-9.04686e-11
-5.88238e-08
-1.20168e-09
-3.22964e-07
-9.40202e-11
-2.11228e-06
-7.01779e-08
-9.00003e-06
-2.68988e-07
-1.51934e-06
-1.5444e-05
7.21818e-16
6.73488e-16
2.38561e-14
2.16211e-15
1.23772e-14
-1.10337e-15
6.37338e-15
2.72611e-15
8.11977e-16
1.77592e-15
6.58729e-16
3.31056e-16
4.76956e-16
7.54955e-16
-2.13334e-14
6.93653e-15
-1.06435e-12
9.99826e-13
5.17085e-14
2.49839e-12
3.29689e-12
2.5597e-12
-5.65813e-11
1.0311e-11
-8.35772e-10
8.08967e-11
-8.24065e-10
2.73621e-11
-1.95666e-10
3.21174e-12
-2.56836e-11
1.3913e-12
-2.31457e-11
2.65278e-12
-1.71239e-10
1.95114e-11
-5.38151e-10
1.60285e-10
-1.15853e-09
1.89814e-09
-7.35018e-08
6.1336e-10
-3.58927e-07
-7.48546e-09
-1.98011e-07
-1.78814e-06
2.4535e-17
1.86835e-16
6.86129e-16
2.4966e-16
2.71196e-16
1.42503e-16
1.83055e-16
9.673e-17
8.12756e-17
1.5242e-16
5.65383e-17
2.90272e-16
3.44153e-17
3.88076e-16
2.47945e-15
4.07887e-15
-8.83641e-13
6.73678e-13
-3.51095e-13
1.8183e-12
8.60917e-13
3.29451e-12
-2.2803e-11
8.11931e-12
-1.13743e-11
-6.4123e-12
-4.32135e-12
3.00127e-12
-1.88043e-12
2.02068e-13
-1.44187e-12
1.98346e-13
-2.39898e-12
2.18011e-12
4.60232e-13
1.31533e-11
3.24463e-10
9.44252e-11
-1.69688e-10
3.56286e-09
4.53846e-09
7.61121e-09
-6.23683e-09
1.10529e-08
3.66253e-08
-2.73025e-07
1.86047e-18
1.75624e-17
1.96901e-17
1.94465e-17
1.09186e-17
1.2295e-17
9.22825e-18
1.48387e-17
2.26135e-17
9.3267e-17
3.22896e-17
2.84586e-16
3.06013e-18
4.23731e-16
2.81839e-15
1.11231e-15
-7.40665e-14
-1.11717e-16
8.90251e-14
1.16083e-13
-1.04493e-12
2.32195e-12
-9.66653e-12
6.70234e-12
-2.47214e-12
-3.34137e-14
-1.84276e-13
1.44648e-13
-1.06297e-13
7.88841e-14
-7.54352e-13
1.87264e-13
-5.31916e-13
3.0467e-12
-7.87484e-12
2.12927e-11
6.17691e-11
2.38789e-11
-3.1969e-10
6.99762e-10
7.34342e-10
5.48628e-09
4.84693e-10
1.22863e-08
2.15549e-08
1.78631e-08
6.58163e-20
1.05256e-18
5.22879e-19
7.8733e-19
4.65552e-19
5.59505e-19
1.71593e-18
5.74869e-18
1.15983e-17
7.02394e-17
2.19044e-17
2.57333e-16
1.30657e-17
4.49922e-16
-2.46204e-16
5.82703e-16
-1.02358e-15
1.14315e-14
2.94811e-14
1.63729e-14
-4.18049e-13
4.28536e-14
-3.44936e-12
-2.31503e-14
-2.00138e-12
5.29733e-13
-8.80161e-14
6.16978e-13
-4.4573e-14
1.02745e-14
-7.07892e-14
1.68257e-13
-1.17257e-11
1.38063e-11
-3.84397e-13
7.90231e-11
3.31123e-12
1.05653e-10
2.09741e-10
1.72046e-10
3.9389e-09
3.22821e-09
1.20116e-08
1.65408e-08
4.16648e-08
1.63408e-09
3.0941e-21
6.88076e-20
1.21786e-20
2.93292e-20
1.60545e-20
3.58107e-20
5.02741e-19
2.52455e-18
4.84718e-18
3.63539e-17
1.28248e-17
1.59661e-16
1.36373e-17
4.04966e-16
2.684e-18
3.77656e-16
-1.70621e-15
1.3259e-14
-6.46824e-15
6.39083e-14
-2.10869e-14
4.78804e-14
-7.30121e-14
-1.46187e-14
-1.23767e-13
-9.58787e-14
-1.30168e-14
8.2486e-14
-3.25346e-14
7.91218e-15
-7.68497e-14
1.87407e-13
-1.3981e-11
1.60596e-11
3.24706e-12
1.2564e-11
2.62639e-11
1.65568e-11
2.04814e-10
5.57435e-10
3.03346e-09
5.92391e-09
6.52058e-09
2.04305e-08
2.95348e-08
4.96286e-09
3.13614e-22
4.35603e-21
3.07426e-22
1.22081e-21
8.88267e-22
3.73141e-21
1.12866e-19
8.02022e-19
1.23848e-18
1.11473e-17
4.2267e-18
6.23139e-17
6.26051e-18
2.76896e-16
4.64795e-18
3.47897e-16
-1.66148e-15
6.04694e-15
-5.92087e-15
1.12765e-13
-1.2171e-14
1.18415e-13
-1.41223e-14
8.96421e-14
-1.34486e-14
4.88313e-14
-5.95744e-16
7.58847e-15
-1.17441e-14
3.69932e-15
-1.43283e-12
3.78695e-13
-6.52608e-13
2.13387e-14
1.50012e-12
1.00069e-14
1.65827e-12
1.0435e-11
-5.47991e-10
8.12015e-10
-6.31063e-10
3.86906e-09
-3.14405e-10
3.32554e-09
1.16751e-08
2.60936e-12
2.81676e-23
2.69619e-22
8.22953e-24
9.82457e-22
8.63376e-23
4.62266e-22
1.7634e-20
1.75821e-19
1.79483e-19
2.47151e-18
5.91776e-19
1.81715e-17
2.96049e-19
1.58953e-16
-3.03258e-18
3.56534e-16
-1.86666e-15
2.06176e-15
-6.77866e-15
8.55682e-14
-1.49821e-14
1.28009e-13
-2.43653e-14
1.42698e-13
-5.83951e-15
1.08813e-13
-7.34031e-16
3.27285e-15
-1.35201e-14
1.35012e-15
-1.88228e-14
4.3102e-15
-2.04104e-14
2.97486e-15
-1.76644e-13
8.93338e-14
1.89e-12
8.09151e-12
-1.12949e-09
3.25644e-10
-4.00005e-09
2.64724e-09
-6.30468e-09
3.20422e-09
5.57047e-09
1.17942e-09
2.53664e-24
2.06856e-22
-2.34738e-24
-1.72963e-22
7.8309e-24
2.61713e-23
1.84645e-21
3.03401e-20
1.30518e-20
4.76851e-19
-1.4426e-19
5.1172e-18
-2.36725e-18
9.29274e-17
-9.53179e-18
3.61362e-16
-7.57839e-16
6.49516e-16
-4.56917e-15
1.68851e-14
-1.71009e-14
6.44563e-14
-1.27011e-14
1.52206e-13
-1.4744e-15
5.11619e-14
-7.63477e-17
2.31392e-16
-2.27727e-16
8.70394e-17
-6.45009e-16
2.01439e-16
-1.01101e-15
1.3553e-15
1.59388e-15
6.67775e-14
6.45257e-12
1.57168e-12
-7.04216e-10
4.57373e-11
-3.75753e-09
-7.80604e-11
-2.0042e-09
4.07432e-10
2.10178e-09
-1.81229e-09
-1.19017e-24
-1.10291e-22
-3.91829e-24
-3.26347e-22
2.71785e-24
1.21559e-23
1.12759e-22
4.29355e-21
-7.3164e-22
8.13891e-20
-1.99056e-19
1.50141e-18
-4.9234e-18
4.97609e-17
-1.20841e-17
2.85572e-16
-6.85102e-17
3.24211e-16
-1.05405e-15
9.69669e-16
-9.28086e-15
1.0159e-14
-5.05974e-15
4.10606e-14
-1.19535e-16
3.69151e-15
-1.85474e-17
4.45639e-17
-2.73731e-17
4.67677e-17
-6.87259e-17
6.15767e-17
3.10339e-16
3.85313e-16
5.7544e-14
7.49713e-15
-4.28851e-12
4.7378e-13
-2.63553e-11
-7.90013e-13
-1.38639e-10
1.67148e-12
-1.32564e-10
6.48647e-11
3.43237e-09
-2.12458e-09
-1.56403e-24
-1.74113e-22
-2.78022e-24
-2.80462e-22
-4.70233e-25
-1.12524e-22
-1.89252e-24
4.52414e-22
-4.30014e-22
1.18712e-20
-8.99142e-20
4.12382e-19
-3.77348e-18
1.84991e-17
-9.21119e-18
1.40041e-16
-1.75536e-17
1.99914e-16
-1.02942e-16
1.53869e-16
-1.37923e-15
5.88749e-16
-2.70925e-16
2.09062e-15
-7.86274e-18
1.08609e-16
-9.04204e-18
2.15916e-17
-1.14854e-17
2.72192e-17
-3.04676e-17
2.37505e-17
-1.68726e-16
3.02254e-16
2.1265e-15
1.71011e-15
1.01583e-13
6.75833e-15
-1.13976e-12
7.04772e-14
-5.89962e-12
2.84511e-12
-8.60174e-11
1.12431e-10
2.97675e-09
-3.11323e-11
-1.173e-24
-1.58347e-22
-1.5649e-24
-1.98364e-22
-3.66585e-25
-1.7831e-22
-9.00398e-25
2.5224e-23
-9.67236e-23
1.46601e-21
-2.36193e-20
9.62675e-20
-1.19164e-18
4.26046e-18
-5.51675e-18
3.91987e-17
-7.0608e-18
8.65432e-17
-1.21967e-17
6.70749e-17
-6.56917e-17
6.87179e-17
-1.2686e-17
8.27046e-17
-2.49694e-18
1.2339e-17
-2.73409e-18
7.28674e-18
-3.15862e-18
5.77079e-18
-1.18587e-17
5.29938e-18
-1.4441e-16
9.79473e-17
-4.56597e-16
5.40148e-16
2.43043e-15
2.11006e-15
7.52157e-15
4.16831e-14
1.02714e-12
1.39935e-12
6.38592e-11
4.24494e-11
5.23437e-10
5.68637e-10
-7.6795e-25
-1.20446e-22
-7.68568e-25
-1.23158e-22
-1.3878e-25
-1.63833e-22
-5.81222e-26
1.29664e-23
-1.68244e-23
1.58186e-22
-4.15602e-21
1.87083e-20
-1.93503e-19
6.86036e-19
-1.46039e-18
6.55568e-18
-2.40674e-18
2.13308e-17
-3.39599e-18
2.96018e-17
-4.51659e-18
2.5346e-17
-1.50729e-18
1.18496e-17
-6.13921e-19
3.34731e-18
-3.28755e-19
1.19561e-18
-3.99315e-19
4.46886e-19
-1.53265e-18
5.84551e-19
-2.72546e-17
1.28445e-17
-1.80236e-16
1.65211e-16
1.33258e-16
1.13045e-15
3.23011e-14
6.35464e-15
1.24144e-12
1.32671e-13
3.98242e-11
2.48554e-12
1.86375e-10
-8.45013e-10
-4.80787e-25
-8.14258e-23
-3.65131e-25
-6.76885e-23
-9.08465e-26
-1.14421e-22
-2.29186e-25
-1.92591e-24
-2.33234e-24
1.63762e-23
-5.34638e-22
3.00625e-21
-2.02534e-20
9.28745e-20
-1.78731e-19
8.51932e-19
-6.11186e-19
3.50292e-18
-9.55578e-19
8.21041e-18
-8.23222e-19
9.69512e-18
-2.97252e-19
3.20322e-18
-7.92123e-20
9.27458e-19
-2.08318e-20
1.32177e-19
-2.60309e-20
2.79551e-20
-1.0344e-19
5.65721e-20
-3.01699e-18
1.40767e-18
-6.22765e-17
3.76349e-17
-3.18469e-16
6.01748e-16
2.7894e-15
2.9151e-15
1.17418e-13
1.1852e-14
1.76514e-12
3.04375e-13
8.45543e-12
2.73151e-11
-2.89754e-25
-4.95574e-23
-1.73578e-25
-3.28564e-23
-1.09312e-25
-6.6085e-23
-4.80854e-27
-6.65668e-24
-1.83508e-25
1.76147e-24
-4.4741e-23
3.94364e-22
-1.62021e-21
1.17999e-20
-1.66465e-20
1.13258e-19
-7.95467e-20
5.08621e-19
-1.70576e-19
1.2881e-18
-1.33313e-19
1.84978e-18
-4.90344e-20
7.37191e-19
-8.25883e-21
2.00667e-19
-1.16818e-21
2.13263e-20
-1.46571e-21
2.44594e-21
-6.58315e-21
5.92785e-21
-2.2938e-19
1.7805e-19
-9.37826e-18
6.04637e-18
-1.5318e-16
1.74623e-16
-4.11058e-16
1.87612e-15
9.65411e-15
6.00147e-15
2.98831e-13
1.85214e-14
1.19733e-12
7.1442e-12
-1.65214e-25
-2.72058e-23
-8.0491e-26
-1.40279e-23
-1.05446e-25
-3.25433e-23
-1.25443e-26
-5.45497e-24
7.33504e-27
1.82272e-25
-8.02132e-25
4.2661e-23
-6.91023e-23
1.44948e-21
-1.05071e-21
1.57822e-20
-5.40086e-21
7.08227e-20
-1.24698e-20
1.43803e-19
-1.1778e-20
1.81402e-19
-5.04196e-21
1.07773e-19
-8.70945e-22
3.47947e-20
-5.73941e-23
4.52885e-21
-7.11572e-23
1.97547e-22
-3.54456e-22
5.65373e-22
-1.29211e-20
2.35856e-20
-5.92845e-19
8.42684e-19
-1.82242e-17
3.00752e-17
-1.32883e-16
6.46408e-16
-1.90376e-16
4.61769e-15
9.86773e-15
1.08489e-14
2.01819e-13
9.86125e-13
-8.78316e-26
-1.3468e-23
-3.51853e-26
-5.25127e-24
-7.42735e-26
-1.38261e-23
-1.69222e-26
-2.97942e-24
1.62097e-26
1.38969e-26
2.36553e-25
3.85462e-24
7.36932e-24
1.64956e-22
6.0039e-23
2.04022e-21
1.47786e-22
8.71302e-21
1.06314e-22
1.50546e-20
-1.50389e-23
1.62425e-20
-4.97608e-23
1.18322e-20
-1.41015e-23
4.56957e-21
-2.86337e-25
6.12899e-22
-2.98624e-25
1.19029e-22
-1.30942e-24
3.33946e-23
5.15142e-23
2.88732e-21
8.55506e-21
1.15409e-19
6.09137e-19
3.90105e-18
2.30133e-17
1.13935e-16
2.97713e-16
1.56315e-15
2.83275e-15
6.07891e-15
3.38382e-14
1.96458e-13
-4.30889e-26
-6.01171e-24
-1.3841e-26
-1.72261e-24
-4.01778e-26
-5.0994e-24
-1.19689e-26
-1.2662e-24
8.4072e-27
6.48819e-27
4.7248e-26
2.86638e-25
2.28553e-24
1.57039e-23
2.83583e-23
2.15638e-22
1.04817e-22
8.73844e-22
1.59155e-22
1.47258e-21
1.83512e-22
1.58321e-21
1.04155e-22
1.12419e-21
2.36985e-23
3.76831e-22
8.62637e-24
2.51915e-23
-7.61394e-25
-1.93677e-23
2.12563e-24
2.10065e-23
1.83956e-22
2.96905e-22
9.67013e-21
1.54406e-20
3.82457e-19
4.77228e-19
1.19065e-17
1.20269e-17
1.90838e-16
2.14421e-16
1.08674e-15
1.47269e-15
1.57797e-15
3.51649e-14
-1.91956e-26
-2.4217e-24
-4.78609e-27
-4.96526e-25
-1.74894e-26
-1.64229e-24
-5.98302e-27
-4.45231e-25
4.2066e-28
8.45098e-29
5.44383e-27
1.78046e-26
3.40261e-25
1.14707e-24
4.85882e-24
1.70978e-23
1.82127e-23
6.83514e-23
2.88907e-23
1.18094e-22
3.46033e-23
1.32417e-22
1.82907e-23
7.97566e-23
2.53864e-24
1.57151e-23
9.59451e-25
1.43202e-23
-7.10107e-24
-8.91869e-23
-3.64777e-24
-3.82491e-23
3.69347e-23
2.77895e-23
2.22809e-21
1.78637e-21
8.2893e-20
5.90595e-20
2.16159e-18
1.15109e-18
3.80523e-17
1.72586e-17
2.68086e-16
1.56972e-16
5.58407e-16
3.7779e-15
-7.68523e-27
-8.82072e-25
-1.44374e-27
-1.26513e-25
-6.33692e-27
-4.64965e-25
-2.3723e-27
-1.33835e-25
-6.05853e-30
-2.72723e-28
4.73804e-28
9.81067e-28
3.34338e-26
6.64924e-26
5.20839e-25
1.03698e-24
1.98422e-24
4.23431e-24
3.19998e-24
7.40421e-24
3.86236e-24
7.96913e-24
1.44874e-24
3.44189e-24
8.46163e-25
1.00566e-23
-3.42404e-24
-3.45534e-23
-1.13786e-23
-9.7257e-23
-8.27821e-24
-5.96758e-23
1.06877e-23
8.82359e-24
3.47428e-22
1.73067e-22
1.45233e-20
7.62456e-21
3.20769e-19
1.396e-19
4.80568e-18
1.57349e-18
4.47924e-17
1.28644e-17
1.42994e-16
3.02043e-16
-2.76798e-27
-2.91337e-25
-3.85062e-28
-2.87517e-26
-1.95922e-27
-1.16622e-25
-7.73804e-28
-3.51216e-26
-5.26889e-30
-1.89254e-28
3.90599e-29
4.47481e-29
2.52026e-27
3.45409e-27
4.10965e-26
5.47736e-26
1.59179e-25
2.27193e-25
2.44308e-25
3.84874e-25
2.80901e-25
3.30411e-25
2.16708e-25
2.32317e-24
-5.82985e-25
-5.32529e-24
-5.07868e-24
-3.95474e-23
-1.05569e-23
-6.99154e-23
-8.50012e-24
-4.78577e-23
-3.09136e-25
-1.47547e-24
4.2032e-23
1.40103e-23
2.34146e-21
9.76384e-22
5.24944e-20
2.15455e-20
6.46647e-19
2.1867e-19
5.46795e-18
1.38703e-18
9.95723e-18
4.10238e-17
-9.0284e-28
-8.75637e-26
-9.1491e-29
-5.89697e-27
-5.26772e-28
-2.61259e-26
-2.15402e-28
-8.17019e-27
-2.83487e-30
-8.47815e-29
4.78851e-30
3.3907e-30
1.62802e-28
1.58588e-28
2.73349e-27
2.70497e-27
1.04074e-26
1.09764e-26
1.49596e-26
1.58593e-26
2.2994e-26
2.39263e-25
-4.35249e-26
-3.86469e-25
-9.75987e-25
-7.3979e-24
-3.94534e-24
-2.5519e-23
-6.89664e-24
-3.80905e-23
-5.81697e-24
-2.7393e-23
-8.84756e-25
-3.5504e-24
4.82373e-24
1.95616e-24
3.45827e-22
1.18644e-22
9.42678e-21
3.56432e-21
1.12069e-19
4.07388e-20
7.56868e-19
2.07395e-19
7.79598e-19
5.08246e-18
-2.69323e-28
-2.40409e-26
-1.96362e-29
-1.10753e-27
-1.24102e-28
-5.2704e-27
-5.24771e-29
-1.70483e-27
-1.12833e-30
-2.89618e-29
9.06291e-31
1.35608e-30
8.09902e-30
6.94353e-30
1.54627e-28
1.12719e-28
5.16587e-28
4.61009e-28
1.16744e-27
1.23193e-26
-1.75438e-27
-1.58027e-26
-9.94179e-26
-7.65473e-25
-6.89421e-25
-4.54309e-24
-2.14957e-24
-1.21224e-23
-3.44717e-24
-1.66339e-23
-2.97899e-24
-1.22939e-23
-7.15323e-25
-2.52291e-24
8.7304e-25
3.67795e-25
4.76576e-23
1.44137e-23
1.7121e-21
5.94688e-22
2.25835e-20
7.98963e-21
1.19499e-19
3.59099e-20
6.41852e-20
4.6098e-19
-7.42496e-29
-6.0525e-27
-3.87689e-30
-1.93933e-28
-2.59913e-29
-9.64911e-28
-1.1289e-29
-3.22266e-28
-3.5952e-31
-8.12911e-30
-1.32399e-31
-2.44812e-30
4.79844e-31
5.21677e-30
6.92435e-30
9.00874e-29
3.29219e-29
3.62795e-28
-1.42886e-28
-1.34407e-27
-6.20405e-27
-4.99555e-26
-6.55696e-26
-4.5269e-25
-3.31934e-25
-1.96574e-24
-9.05929e-25
-4.60292e-24
-1.37939e-24
-6.01264e-24
-1.20869e-24
-4.51684e-24
-3.73225e-25
-1.19491e-24
-1.52271e-28
-4.17211e-28
6.59953e-24
1.86618e-24
3.19308e-22
1.03172e-22
4.52077e-21
1.41835e-21
1.83236e-20
6.16602e-21
5.5679e-21
3.48513e-20
-1.90802e-29
-1.40217e-27
-7.19424e-31
-3.23613e-29
-4.86406e-30
-1.61508e-28
-2.16963e-30
-5.56474e-29
-9.67824e-32
-1.97148e-30
-1.07896e-31
-1.80155e-30
-4.01388e-31
-5.59019e-30
-1.08779e-30
-1.27967e-29
-1.64945e-29
-1.65253e-28
-3.13383e-28
-2.68765e-27
-3.86087e-27
-2.8435e-26
-2.8653e-26
-1.81498e-25
-1.23348e-25
-6.72338e-25
-3.10175e-25
-1.45501e-24
-4.55861e-25
-1.83899e-24
-4.02052e-25
-1.39411e-24
-1.4493e-25
-4.31444e-25
-1.14709e-26
-2.92806e-26
9.294e-25
2.28107e-25
5.81169e-23
1.61401e-23
8.01808e-22
2.0798e-22
2.44147e-21
9.32032e-22
6.16175e-22
2.58175e-21
-4.56696e-30
-2.99828e-28
-1.28314e-31
-5.26906e-30
-8.18827e-31
-2.48858e-29
-3.75115e-31
-8.84108e-30
-2.28022e-32
-4.27746e-31
-4.9718e-32
-7.65445e-31
-3.10665e-31
-3.99575e-30
-1.77634e-30
-1.9331e-29
-1.62022e-29
-1.50433e-28
-1.7332e-28
-1.38052e-27
-1.55839e-27
-1.06848e-26
-9.64038e-27
-5.70041e-26
-3.75045e-26
-1.91425e-25
-8.91353e-26
-3.92677e-25
-1.27364e-25
-4.83986e-25
-1.12429e-25
-3.68134e-25
-4.46941e-26
-1.25891e-25
-5.50416e-27
-1.33128e-26
1.12531e-25
1.99739e-26
8.47686e-24
1.747e-24
1.16621e-22
2.37107e-23
3.68449e-22
1.24523e-22
9.59565e-23
3.3231e-22
-1.01169e-30
-5.93316e-29
-2.23586e-32
-8.53175e-31
-1.2459e-31
-3.55295e-30
-5.86214e-32
-1.30067e-30
-4.80676e-33
-8.50091e-32
-1.68433e-32
-2.44754e-31
-1.29074e-31
-1.56764e-30
-8.71776e-31
-8.96199e-30
-7.22001e-30
-6.33644e-29
-6.32806e-29
-4.76828e-28
-4.81533e-28
-3.12733e-27
-2.65531e-27
-1.48955e-26
-9.63386e-27
-4.67319e-26
-2.19517e-26
-9.20905e-26
-3.06328e-26
-1.11072e-25
-2.69439e-26
-8.4347e-26
-1.13872e-26
-3.0716e-26
-1.72197e-27
-3.99258e-27
1.02952e-26
9.96219e-28
8.39431e-25
1.16164e-25
1.36514e-23
2.12861e-24
5.23328e-23
1.5551e-23
1.60891e-23
5.61118e-23
-2.06656e-31
-1.0889e-29
-3.8248e-33
-1.3847e-31
-1.71865e-32
-4.72966e-31
-8.30096e-33
-1.78212e-31
-9.164e-34
-1.5705e-32
-4.55441e-33
-6.41819e-32
-3.8936e-32
-4.58469e-31
-2.85089e-31
-2.84028e-30
-2.25292e-30
-1.91472e-29
-1.77219e-29
-1.29206e-28
-1.21239e-28
-7.61357e-28
-6.17298e-28
-3.34736e-27
-2.12709e-27
-9.97546e-27
-4.6887e-27
-1.90199e-26
-6.40584e-27
-2.24713e-26
-5.59737e-27
-1.69559e-26
-2.45445e-27
-6.40774e-27
-4.1865e-28
-9.39269e-28
8.30116e-28
1.75058e-28
5.64284e-26
5.49025e-27
1.30182e-24
1.57185e-25
7.33519e-24
1.63071e-24
1.80546e-24
9.29646e-24
-3.88503e-32
-1.85686e-30
-6.36924e-34
-2.24081e-32
-2.15531e-33
-5.90679e-32
-1.06602e-33
-2.28662e-32
-1.58379e-34
-2.71946e-33
-1.0198e-33
-1.44115e-32
-9.3095e-33
-1.09885e-31
-7.14473e-32
-7.12757e-31
-5.48693e-31
-4.66047e-30
-4.02648e-30
-2.92809e-29
-2.55657e-29
-1.59785e-28
-1.2273e-28
-6.60933e-28
-4.06429e-28
-1.88886e-27
-8.71484e-28
-3.49732e-27
-1.16773e-27
-4.04468e-27
-1.01083e-27
-3.01803e-27
-4.5195e-28
-1.16047e-27
-8.32164e-29
-1.83146e-28
7.77239e-29
1.41171e-29
2.92905e-27
2.26873e-28
1.00198e-25
9.32494e-27
7.02454e-25
1.25149e-25
1.05616e-25
8.19934e-25
-6.70528e-33
-2.94676e-31
-1.01521e-34
-3.56561e-33
-2.46141e-34
-6.96332e-33
-1.24123e-34
-2.76218e-33
-2.47632e-35
-4.4321e-34
-1.92863e-34
-2.84646e-33
-1.83433e-33
-2.26131e-32
-1.44938e-32
-1.50823e-31
-1.09087e-31
-9.64287e-31
-7.62138e-31
-5.75196e-30
-4.57598e-30
-2.95871e-29
-2.09803e-29
-1.16483e-28
-6.72414e-29
-3.21003e-28
-1.40741e-28
-5.77995e-28
-1.84955e-28
-6.53133e-28
-1.58155e-28
-4.79446e-28
-7.10715e-29
-1.84505e-28
-1.3699e-29
-3.03322e-29
3.92547e-31
2.55587e-32
1.28481e-28
8.61741e-30
5.86205e-27
4.15084e-28
4.78644e-26
6.2342e-27
4.06007e-27
4.56853e-26
-1.05499e-33
-4.35911e-32
-1.52003e-35
-5.48579e-34
-2.56921e-35
-7.79551e-34
-1.31149e-35
-3.15815e-34
-3.48842e-36
-6.81497e-35
-3.11946e-35
-5.04082e-34
-3.04355e-34
-4.11122e-33
-2.44837e-33
-2.78911e-32
-1.81315e-32
-1.75097e-31
-1.22019e-31
-1.00289e-30
-7.00907e-31
-4.91688e-30
-3.09347e-30
-1.85598e-29
-9.63144e-30
-4.94763e-29
-1.96933e-29
-8.66417e-29
-2.53435e-29
-9.54073e-29
-2.13131e-29
-6.85218e-29
-9.4977e-30
-2.59979e-29
-1.86532e-30
-4.32745e-30
-6.27917e-32
-1.22633e-31
4.85059e-30
2.95577e-31
2.4876e-28
1.40835e-29
2.29137e-27
2.24084e-28
1.36318e-28
1.93624e-27
-1.50853e-34
-6.02227e-33
-2.10248e-36
-8.05158e-35
-2.45808e-36
-8.3356e-35
-1.26061e-36
-3.43589e-35
-4.41687e-37
-9.90681e-36
-4.35975e-36
-8.12239e-35
-4.3145e-35
-6.73615e-34
-3.5064e-34
-4.61533e-33
-2.56069e-33
-2.8515e-32
-1.67092e-32
-1.57933e-31
-9.24547e-32
-7.43431e-31