/*--------------------------------*- C++ -*----------------------------------*\
| =========                 |                                                 |
| \\      /  F ield         | OpenFOAM: The Open Source CFD Toolbox           |
|  \\    /   O peration     | Version:  2206                                  |
|   \\  /    A nd           | Website:  www.openfoam.com                      |
|    \\/     M anipulation  |                                                 |
\*---------------------------------------------------------------------------*/
FoamFile
{
    version     2.0;
    format      ascii;
    arch        "LSB;label=32;scalar=64";
    class       volScalarField;
    location    "0.675";
    object      p;
}
// * * * * * * * * * * * * * * * * * * * * * * * * * * * * * * * * * * * * * //

dimensions      [1 -1 -2 0 0 0 0];

internalField   nonuniform List<scalar> 
2268
(
507.474
507.216
509.689
515.529
526.629
544.246
567.593
592.865
617.977
642.879
668.064
693.351
718.316
742.641
765.948
787.527
807.16
823.065
831.582
834.7
849.933
885.876
913.806
448.051
447.305
449.632
455.35
466.276
483.983
507.749
533.519
558.9
583.906
609.132
634.462
659.462
683.823
707.242
729.121
749.416
767.664
776.303
774.473
783.777
816.08
849.279
387.254
386.24
388.735
394.228
404.562
422.199
446.793
473.669
499.66
524.882
550.203
575.576
600.567
624.817
648.073
670.015
690.528
709.288
719.528
718.697
724.686
751.797
785.295
325.698
324.476
327.033
332.082
341.47
358.925
384.849
413.525
440.427
465.916
491.339
516.795
541.836
566.061
589.234
611.166
631.717
650.29
662.659
666.535
674.141
695.69
724.885
264.072
262.395
264.78
269.342
277.929
295.099
322.879
353.473
381.312
407.058
432.586
458.14
483.281
507.567
530.774
552.794
573.498
592.455
607.231
616.94
628.521
645.322
667.633
202.519
200.359
202.11
206.207
214.631
232.532
261.721
293.471
322.066
348.245
373.949
399.615
424.89
449.285
472.582
494.745
515.726
535.343
552.491
566.471
580.894
595.3
611.937
140.993
139.368
140.1
143.698
153.079
171.788
201.004
232.72
261.956
288.979
315.287
341.256
366.718
391.245
414.631
436.916
458.123
478.265
496.836
513.45
530.39
545.182
556.702
78.4871
77.5475
78.4926
82.8356
93.5987
112.047
140.473
171.537
201.025
229.335
256.422
282.893
308.612
333.369
356.912
379.33
400.715
421.272
440.807
459.355
478.553
496.176
504.791
1273.06
1238.1
1237.66
1241.11
1086.71
866.637
713.48
648.054
629.832
658.973
759.165
941.477
1089.26
1133.06
1164.59
1279.31
1435.75
1496.56
1507.16
1265.61
1211.07
1192.19
1115.58
883.008
628.574
532.503
534.701
558.546
590.375
680.008
886.256
1056.94
1079.16
1069.5
1135.32
1280.22
1417.05
1454.71
1294.45
1190.37
1055.12
793.945
544.199
475.315
477.85
500.191
524.882
554.948
630.299
837.088
1036.77
1038.25
971.997
952.526
1033.3
1276.51
1391.47
1432.65
1196.61
832.601
547.824
459.034
447.144
465.909
492.937
519.574
549.638
611.396
782.658
998.622
1005.78
970.768
922.162
873.847
1039.1
1296.53
1520.39
1119.53
635.706
477.662
430.028
433.155
458.052
488.861
515.76
544.311
589.283
720.965
921.694
969.335
948.871
895.984
821.938
853.895
1170.41
1441.18
960.865
550.623
452.178
418.111
424.765
451.679
484.454
510.344
534.015
555.83
658.795
800.377
869.695
881.274
855.072
786.946
768.965
1017.82
1231.08
780.777
521.579
442.269
415.333
420.141
447.328
478.383
499.262
509.528
517.277
577.575
671.943
732.358
768.08
774.041
745.477
687.653
876.323
1050.84
667.459
500.994
442.305
420.191
421.052
445.238
470.703
478.119
470.888
463.343
481.604
542.555
596.499
626.857
631.203
657.722
620.33
770.054
21.6098
20.058
22.5698
28.2296
35.5303
46.7325
62.1149
82.0466
107.013
135.246
164.115
191.921
218.259
243.332
266.994
289.456
310.996
332.214
353.016
373.732
396.249
420.556
448.117
1.48572
0.983267
1.33668
3.24126
5.35453
7.64798
10.2349
14.5598
23.5182
36.8078
55.016
77.0986
99.8198
122.864
146.696
168.709
189.023
210.265
232.1
254.357
278.498
305.967
340.403
0.84643
0.610063
0.528076
0.543845
0.499709
0.416932
0.337908
0.424071
0.971717
2.62046
6.1991
12.6576
21.3993
31.9981
46.6666
61.67
76.8284
93.3389
113.696
135.036
157.681
184.892
218.452
0.441381
0.304969
0.21952
0.290966
0.286098
0.223945
0.192888
0.240676
0.296871
0.339018
0.380018
0.420928
0.459231
0.716201
2.91417
7.31462
12.2544
18.3896
27.7132
39.0301
53.4359
68.4329
98.3048
0.247102
0.177955
0.144266
0.173649
0.14443
0.0880363
0.054035
0.0656327
0.119682
0.178274
0.227098
0.275646
0.340864
0.433389
0.477205
0.525455
0.610508
0.609643
0.376256
0.70424
3.28467
7.74739
25.8314
0.0716188
0.0493481
0.0220315
0.00623094
-0.00854473
-0.0287719
-0.0329263
-0.0111555
0.0142762
0.043742
0.0699693
0.104369
0.14374
0.185592
0.234164
0.301196
0.344288
0.367064
0.364418
0.349678
-0.0309745
-0.909476
3.03785
-0.112075
-0.11621
-0.135174
-0.150745
-0.160681
-0.169086
-0.17061
-0.16285
-0.147764
-0.123315
-0.0951809
-0.0646042
-0.0290524
0.00992351
0.0469412
0.071758
0.0729489
0.039679
-0.0208063
-0.0400631
-0.0918841
-0.283145
0.64208
-0.288475
-0.29112
-0.301219
-0.308487
-0.315458
-0.321519
-0.321315
-0.313722
-0.300907
-0.285729
-0.266504
-0.245408
-0.223114
-0.197194
-0.169672
-0.15452
-0.156762
-0.176754
-0.22861
-0.309863
-0.359696
-0.358777
-0.203085
-0.46069
-0.463039
-0.4688
-0.473343
-0.477634
-0.480444
-0.479189
-0.473375
-0.464474
-0.453503
-0.440483
-0.425704
-0.40951
-0.391551
-0.376804
-0.371127
-0.375642
-0.389574
-0.416952
-0.458645
-0.458378
-0.398684
-0.420152
-0.631787
-0.633116
-0.636786
-0.640206
-0.64279
-0.644008
-0.64294
-0.639471
-0.633831
-0.626156
-0.61709
-0.607264
-0.596951
-0.586925
-0.580235
-0.580431
-0.588029
-0.601961
-0.620308
-0.637829
-0.634057
-0.620228
-0.5386
-0.801633
-0.802737
-0.804859
-0.807104
-0.808744
-0.80983
-0.809448
-0.807556
-0.804218
-0.799757
-0.794672
-0.78947
-0.784653
-0.781284
-0.780995
-0.785583
-0.795143
-0.808988
-0.825898
-0.840475
-0.854882
-0.915558
-0.799221
-0.97033
-0.97149
-0.972725
-0.9744
-0.975717
-0.976907
-0.977241
-0.976748
-0.97554
-0.973944
-0.972261
-0.97092
-0.970562
-0.972158
-0.976838
-0.985473
-0.998058
-1.01439
-1.03375
-1.05233
-1.08748
-1.16423
-1.11257
-1.13836
-1.13936
-1.14036
-1.14191
-1.14334
-1.14483
-1.14599
-1.1469
-1.14764
-1.14846
-1.14964
-1.15169
-1.15519
-1.16084
-1.16939
-1.18134
-1.19694
-1.21633
-1.23872
-1.26432
-1.30934
-1.36939
-1.36428
-1.30587
-1.30661
-1.30772
-1.30933
-1.31106
-1.31307
-1.31513
-1.31735
-1.31981
-1.32277
-1.3265
-1.33144
-1.33806
-1.34692
-1.35857
-1.37344
-1.39184
-1.41398
-1.4394
-1.46992
-1.51572
-1.56839
-1.57252
-1.47284
-1.47342
-1.47472
-1.47648
-1.47861
-1.48124
-1.48417
-1.48758
-1.49159
-1.49642
-1.50234
-1.50969
-1.51888
-1.53036
-1.5446
-1.56198
-1.58281
-1.60728
-1.63555
-1.66907
-1.71387
-1.76853
-1.76717
-1.63923
-1.63978
-1.64125
-1.64325
-1.64582
-1.64902
-1.65279
-1.65728
-1.66262
-1.66904
-1.6768
-1.68619
-1.69756
-1.71128
-1.72775
-1.7474
-1.77056
-1.79749
-1.8288
-1.86581
-1.91318
-1.97305
-2.00154
-1.80495
-1.80557
-1.8072
-1.80945
-1.81245
-1.81621
-1.82075
-1.82618
-1.83267
-1.84042
-1.8497
-1.86079
-1.87399
-1.88963
-1.9081
-1.92984
-1.95533
-1.98511
-2.02024
-2.06308
-2.11908
-2.19569
-2.29584
-1.96994
-1.97067
-1.97245
-1.97493
-1.97834
-1.98262
-1.98783
-1.99408
-2.00152
-2.01038
-2.02091
-2.03338
-2.04807
-2.06532
-2.08548
-2.10903
-2.1366
-2.16901
-2.20772
-2.25566
-2.31852
-2.40439
-2.52605
-2.1341
-2.13496
-2.13685
-2.1396
-2.14334
-2.14808
-2.15387
-2.16081
-2.16905
-2.17881
-2.19032
-2.20386
-2.21973
-2.23822
-2.25969
-2.28463
-2.31368
-2.34779
-2.38841
-2.43804
-2.50092
-2.58214
-2.6874
-2.29738
-2.29834
-2.30034
-2.30333
-2.30734
-2.31248
-2.31874
-2.32625
-2.33513
-2.34558
-2.35784
-2.37217
-2.38888
-2.40826
-2.43064
-2.45644
-2.48627
-2.52095
-2.56167
-2.61005
-2.66826
-2.73815
-2.81913
-2.45971
-2.46074
-2.46283
-2.46601
-2.47028
-2.47572
-2.48235
-2.4903
-2.49967
-2.51065
-2.52345
-2.53828
-2.55553
-2.57545
-2.59833
-2.62453
-2.65449
-2.6889
-2.72867
-2.77468
-2.82772
-2.88776
-2.95234
-2.62103
-2.62212
-2.62428
-2.62759
-2.63204
-2.63771
-2.64463
-2.6529
-2.66262
-2.67398
-2.68716
-2.70212
-2.7197
-2.73987
-2.7629
-2.78911
-2.81875
-2.85233
-2.89087
-2.93466
-2.9841
-3.03907
-3.09842
-2.78131
-2.78244
-2.78464
-2.78803
-2.79261
-2.79842
-2.80552
-2.81398
-2.8239
-2.83542
-2.84871
-2.86396
-2.88153
-2.90161
-2.92443
-2.95026
-2.97937
-3.01219
-3.04932
-3.09123
-3.13845
-3.1915
-3.25144
-2.94052
-2.94168
-2.94389
-2.94732
-2.95194
-2.95783
-2.96501
-2.97355
-2.98354
-2.9951
-3.00839
-3.02361
-3.04101
-3.0608
-3.0832
-3.10842
-3.13674
-3.16853
-3.20425
-3.24443
-3.28978
-3.34119
-3.40036
-3.09865
-3.09981
-3.10201
-3.10544
-3.11005
-3.11593
-3.1231
-3.13162
-3.14156
-3.15303
-3.16619
-3.18119
-3.19825
-3.21757
-3.23934
-3.26376
-3.29109
-3.32163
-3.35579
-3.3941
-3.43725
-3.48611
-3.54208
-3.2557
-3.25685
-3.25901
-3.2624
-3.26695
-3.27275
-3.27982
-3.28822
-3.298
-3.30926
-3.32214
-3.33677
-3.35334
-3.37203
-3.39301
-3.41645
-3.44259
-3.47169
-3.50411
-3.54029
-3.58084
-3.6265
-3.67827
-3.41166
-3.41279
-3.4149
-3.41822
-3.42266
-3.42833
-3.43522
-3.4434
-3.45292
-3.46386
-3.47633
-3.49045
-3.5064
-3.52432
-3.54435
-3.56666
-3.59144
-3.61893
-3.6494
-3.68323
-3.72091
-3.76299
-3.81014
-3.56655
-3.56766
-3.5697
-3.57292
-3.57722
-3.5827
-3.58936
-3.59724
-3.6064
-3.61691
-3.62886
-3.64237
-3.65756
-3.67458
-3.69354
-3.71458
-3.73787
-3.76359
-3.79197
-3.82329
-3.85791
-3.89622
-3.9386
-3.72042
-3.7215
-3.72345
-3.72654
-3.73066
-3.73591
-3.74227
-3.7498
-3.75853
-3.76852
-3.77986
-3.79265
-3.80699
-3.82299
-3.84077
-3.86043
-3.88212
-3.90597
-3.93215
-3.96087
-3.99237
-4.02688
-4.06461
-3.87329
-3.87435
-3.87619
-3.87913
-3.88305
-3.88803
-3.89405
-3.90116
-3.9094
-3.91881
-3.92946
-3.94144
-3.95484
-3.96975
-3.98626
-4.00447
-4.02447
-4.04638
-4.07031
-4.0964
-4.12479
-4.15561
-4.18895
-4.02524
-4.02627
-4.02798
-4.03075
-4.03444
-4.03911
-4.04476
-4.05141
-4.05911
-4.06788
-4.07778
-4.08889
-4.10128
-4.11504
-4.13022
-4.14692
-4.16519
-4.18512
-4.20679
-4.23027
-4.25565
-4.28296
-4.31223
-4.17632
-4.1773
-4.17889
-4.18148
-4.1849
-4.18924
-4.19447
-4.20063
-4.20775
-4.21584
-4.22495
-4.23515
-4.24649
-4.25905
-4.27287
-4.28801
-4.30453
-4.32248
-4.34191
-4.36285
-4.38532
-4.40935
-4.43489
-4.32661
-4.32753
-4.32898
-4.33136
-4.3345
-4.33848
-4.34327
-4.34891
-4.35541
-4.36278
-4.37108
-4.38033
-4.3906
-4.40193
-4.41436
-4.42794
-4.4427
-4.45869
-4.47592
-4.4944
-4.51413
-4.53508
-4.55722
-4.47617
-4.47701
-4.47833
-4.48049
-4.48332
-4.48692
-4.49124
-4.49634
-4.50219
-4.50883
-4.51628
-4.52456
-4.53374
-4.54383
-4.55487
-4.56689
-4.57992
-4.59398
-4.60907
-4.62518
-4.64229
-4.66039
-4.67943
-4.62509
-4.62583
-4.62702
-4.62895
-4.63146
-4.63466
-4.6385
-4.64302
-4.64821
-4.65408
-4.66067
-4.66798
-4.67604
-4.6849
-4.69456
-4.70504
-4.71636
-4.72853
-4.74154
-4.75537
-4.77001
-4.78544
-4.80165
-4.77345
-4.77407
-4.77513
-4.77682
-4.779
-4.78179
-4.78512
-4.78905
-4.79356
-4.79866
-4.80436
-4.81069
-4.81765
-4.82527
-4.83356
-4.84252
-4.85218
-4.86251
-4.87352
-4.88518
-4.89748
-4.91042
-4.92399
-4.9213
-4.9218
-4.92272
-4.92416
-4.92601
-4.92838
-4.9312
-4.93453
-4.93834
-4.94266
-4.94748
-4.95282
-4.95867
-4.96507
-4.97201
-4.97949
-4.98752
-4.99609
-5.00518
-5.01478
-5.02487
-5.03547
-5.0466
-5.06875
-5.0691
-5.06988
-5.07107
-5.07258
-5.07453
-5.07683
-5.07955
-5.08267
-5.08619
-5.09012
-5.09447
-5.09924
-5.10443
-5.11005
-5.11609
-5.12255
-5.12942
-5.13668
-5.14432
-5.15235
-5.16077
-5.16964
-5.21587
-5.21607
-5.21671
-5.21764
-5.21882
-5.22034
-5.22212
-5.22423
-5.22664
-5.22937
-5.23242
-5.23579
-5.23947
-5.24347
-5.2478
-5.25244
-5.25739
-5.26263
-5.26816
-5.27395
-5.28003
-5.28642
-5.29317
-5.36273
-5.36279
-5.36329
-5.36396
-5.3648
-5.36588
-5.36715
-5.36865
-5.37036
-5.3723
-5.37447
-5.37686
-5.37947
-5.38231
-5.38538
-5.38866
-5.39214
-5.39581
-5.39967
-5.40372
-5.40795
-5.41242
-5.41716
-5.50937
-5.50932
-5.50967
-5.51007
-5.51057
-5.51122
-5.51197
-5.51287
-5.51389
-5.51504
-5.51634
-5.51776
-5.51932
-5.52101
-5.52283
-5.52478
-5.52683
-5.529
-5.53126
-5.53363
-5.53611
-5.53873
-5.54153
-5.6559
-5.65579
-5.65594
-5.65607
-5.65624
-5.65646
-5.6567
-5.657
-5.65734
-5.65772
-5.65815
-5.65862
-5.65914
-5.6597
-5.66029
-5.66093
-5.6616
-5.6623
-5.66303
-5.66379
-5.66459
-5.66543
-5.66634
513.505
588.484
674.398
632.678
396.673
452.997
531.061
575.627
264.336
300.834
329.589
387.028
150.209
167.365
118.54
73.8182
72.3043
80.2968
40.8502
8.89746
26.2956
57.9629
56.4574
32.2023
8.51255
36.2237
67.7844
61.7059
1.20661
16.7882
47.3153
22.4853
-0.121223
5.68313
34.9155
-14.2885
-0.698282
0.895246
29.5692
-22.8045
-1.05492
-0.290779
11.3482
-22.9026
-1.16758
-0.806587
-1.8697
-18.4716
-1.2022
-1.07611
-7.22798
-16.9363
-1.3043
-1.46109
-9.74737
-13.4723
-1.50751
-1.53916
-6.18817
-8.24961
-1.96842
-2.26641
-3.09635
-4.9295
-2.52314
-3.1306
-3.59043
-4.23331
-2.76699
-3.2103
-3.66063
-4.07554
-2.85901
-3.15006
-3.69126
-4.31467
-2.92246
-3.02571
-3.47299
-4.42482
-3.02924
-3.03725
-3.10537
-4.38417
-3.17548
-3.24276
-3.58305
-4.90886
-3.33701
-3.47277
-3.79117
-4.43324
-3.48558
-3.62197
-3.84275
-4.19061
-3.62108
-3.73995
-3.90194
-4.11903
-3.75006
-3.8536
-3.98169
-4.13002
-3.87442
-3.96361
-4.0666
-4.17506
-3.99543
-4.07172
-4.15589
-4.24078
-4.1145
-4.17981
-4.24987
-4.31931
-4.23254
-4.28851
-4.34748
-4.40556
-4.35013
-4.3981
-4.44806
-4.49722
-4.46771
-4.5088
-4.55133
-4.59335
-4.58552
-4.62072
-4.65716
-4.69363
-4.7037
-4.73387
-4.76537
-4.79772
-4.82229
-4.8481
-4.87552
-4.90502
-4.94132
-4.96323
-4.98705
-5.01399
-5.06088
-5.0792
-5.09961
-5.12387
-5.1811
-5.19608
-5.21338
-5.23435
-5.30197
-5.3137
-5.32757
-5.34497
-5.42339
-5.43186
-5.44214
-5.45542
-5.54525
-5.55038
-5.55683
-5.56552
-5.66757
-5.66932
-5.67161
-5.67522
915.11
644.441
503.885
454.805
436.521
436.952
451.891
462.596
445.428
420.989
383.896
357.219
366.671
396.331
400.065
383.829
459.791
515.913
601.394
870.811
666.565
567.445
519.129
485.913
482.904
573.903
584.877
492.611
397.727
338.756
301.575
281.386
293.179
280.429
261.381
292.539
346.764
395.229
598.689
651.942
720.44
687.25
713.391
788.213
762.526
657.726
512.25
379.462
304.786
276.92
266.53
264.374
260.499
253.814
260.555
278.533
290.942
187.801
417.333
743.961
1010.84
1046.1
946.528
804.939
644.232
476.008
326.351
253.564
261.986
266.548
264.945
263.417
263.036
272.76
279.7
276.979
55.7148
241.735
711.224
944.758
899.168
760.454
640.545
537.83
371.559
219.936
148.418
180.504
248.595
267.153
268.333
276.005
293.47
292.32
289.008
69.7906
208.658
476.133
642.365
575.041
324.363
227.303
274.075
194.302
94.0866
51.5941
81.0465
149.18
225.742
230.309
251.294
310.285
292.163
301.558
52.2134
71.6352
143.769
247.768
190.015
69.5089
72.0525
73.058
71.025
58.469
46.7953
49.8089
67.6069
96.6294
114.93
126.36
239.467
265.285
278.344
-10.0435
4.74592
4.77571
23.1525
45.2987
39.6021
37.418
34.3396
27.8404
35.4468
60.4535
72.668
77.5892
77.7282
91.1459
132.282
213.862
257.691
246.3
-29.1165
-23.4121
-18.7659
-15.3246
20.6342
31.0291
24.9903
21.9293
16.5008
12.7574
49.5611
70.4765
89.777
116.534
160.167
197.108
227.515
260.581
231.031
-28.1119
-25.1353
-21.1683
-16.6543
3.83937
18.5802
12.8535
9.90944
5.50794
-0.354878
9.02484
35.9168
71.897
113.599
167.762
219.531
256.617
301.68
240.389
-25.6676
-23.0875
-20.383
-17.0621
-1.51872
6.23961
3.57675
2.37856
0.813127
-2.03606
-0.580917
12.0806
37.8655
59.891
99.3839
163.614
234.008
267.198
209.554
-20.9961
-20.4312
-19.2113
-17.2586
-7.19802
1.23627
0.031984
-0.41194
-0.910609
-1.62117
-2.75664
-3.84538
1.24898
9.00053
19.1631
48.7419
116.027
179.605
156.283
-17.5146
-17.7194
-17.9945
-16.4881
-8.74689
-1.43918
-1.38084
-1.68386
-2.04806
-2.38209
-2.42972
-2.39937
-2.33479
-2.16645
-1.66696
0.861975
13.4355
58.4155
131.575
-14.1967
-14.3412
-15.5558
-15.755
-8.65002
-3.57151
-2.60535
-2.80239
-2.99623
-3.08724
-2.91382
-2.59364
-2.28441
-2.06058
-1.90712
-1.5484
0.953319
12.27
53.4659
-9.94262
-10.8394
-11.7036
-11.4079
-4.46
-4.07289
-3.379
-3.63858
-3.67378
-3.478
-3.14822
-2.75702
-2.4518
-2.26213
-2.14345
-2.09416
-1.59123
1.71627
23.1679
-6.28652
-7.52803
-8.18425
-2.61153
0.728267
-2.72505
-3.34326
-3.85175
-3.95498
-3.62098
-3.27533
-2.90695
-2.62166
-2.45362
-2.33252
-2.31338
-2.00642
-1.23669
8.35361
-4.8608
-7.7108
-4.99148
-0.406508
-3.06211
-2.66865
-3.13418
-3.61681
-3.77834
-3.56838
-3.26889
-2.98765
-2.76776
-2.62236
-2.50175
-2.48033
-2.20606
-2.14265
1.75358
-7.83907
-4.48871
-0.724087
-3.32906
-3.11471
-2.94082
-3.04551
-3.33166
-3.48423
-3.40143
-3.21078
-3.03069
-2.88539
-2.77905
-2.69646
-2.67044
-2.66731
-2.43917
-1.25151
-2.15562
-3.16139
-3.96383
-3.83311
-3.36601
-3.12962
-3.10984
-3.24766
-3.33134
-3.29053
-3.18502
-3.07771
-2.98407
-2.90984
-2.86297
-2.84518
-3.07239
-2.53165
-1.85673
-2.66407
-4.13958
-4.2433
-3.84539
-3.56674
-3.38458
-3.31751
-3.32651
-3.3277
-3.28664
-3.21634
-3.13833
-3.06459
-3.00273
-2.96597
-2.93357
-2.99774
-2.81632
-1.98845
-5.36526
-5.07161
-4.51803
-4.09563
-3.80525
-3.61782
-3.51093
-3.4504
-3.40302
-3.34857
-3.28103
-3.20534
-3.13178
-3.06817
-3.02143
-2.96153
-2.89365
-2.80143
-2.07355
-5.22438
-4.9448
-4.50774
-4.16869
-3.92872
-3.76446
-3.65277
-3.57141
-3.50365
-3.43657
-3.35977
-3.27336
-3.188
-3.11623
-3.05721
-2.99496
-2.9374
-3.05674
-2.26612
-4.66384
-4.582
-4.36194
-4.14931
-3.98578
-3.86332
-3.76816
-3.68802
-3.61405
-3.53718
-3.44684
-3.34329
-3.23836
-3.14905
-3.06159
-2.99022
-2.92451
-3.18453
-2.52144
-4.33395
-4.3281
-4.24537
-4.13703
-4.03647
-3.95124
-3.87757
-3.80642
-3.73014
-3.64457
-3.54317
-3.42553
-3.30573
-3.20419
-3.09174
-3.00198
-2.85145
-2.90739
-2.58227
-4.22234
-4.24093
-4.20669
-4.15656
-4.09997
-4.04712
-3.99393
-3.93009
-3.84941
-3.75808
-3.65629
-3.53749
-3.4242
-3.35552
-3.27264
-3.21051
-2.96787
-2.94926
-2.87372
-4.20712
-4.23318
-4.23218
-4.20708
-4.18085
-4.1537
-4.11518
-4.05317
-3.97093
-3.8829
-3.79232
-3.6927
-3.61635
-3.56845
-3.58766
-3.55884
-3.46151
-3.13497
-3.36802
-4.23748
-4.26679
-4.279
-4.27891
-4.27363
-4.26202
-4.22966
-4.16893
-4.09581
-4.02458
-3.95342
-3.88775
-3.85907
-3.87023
-3.94871
-3.99955
-3.9205
-3.61678
-4.18678
-4.29443
-4.32459
-4.34432
-4.35705
-4.36469
-4.35941
-4.32917
-4.27733
-4.22384
-4.17702
-4.13312
-4.0978
-4.10969
-4.21003
-4.38289
-4.53906
-4.45498
-4.34171
-2.82406
-4.3662
-4.3954
-4.41838
-4.4368
-4.4483
-4.44444
-4.41926
-4.38295
-4.35112
-4.32711
-4.30724
-4.278
-4.28438
-4.4028
-4.69617
-4.84118
-4.74738
-5.09698
-4.85649
-4.44651
-4.47353
-4.49651
-4.51579
-4.52812
-4.52704
-4.51172
-4.49168
-4.47758
-4.47532
-4.47733
-4.4531
-4.43945
-4.59011
-4.83799
-4.92424
-4.91662
-5.10338
-4.84091
-4.5329
-4.55745
-4.57955
-4.59907
-4.61402
-4.62027
-4.61735
-4.61039
-4.6093
-4.63391
-4.67875
-4.69401
-4.72807
-4.94272
-5.00576
-5.08183
-5.06707
-5.19962
-5.00596
-4.62491
-4.64784
-4.66993
-4.69233
-4.7138
-4.73252
-4.74445
-4.75044
-4.76232
-4.81816
-4.94051
-5.04989
-5.20169
-5.34458
-5.31922
-5.33713
-5.30756
-5.33897
-4.83769
-4.72259
-4.74529
-4.76963
-4.79745
-4.82996
-4.86564
-4.89533
-4.919
-4.9549
-5.05539
-5.32058
-5.57339
-5.75728
-5.77271
-5.71475
-5.64884
-5.55665
-5.58387
-5.1372
-4.82543
-4.84903
-4.87717
-4.91274
-4.95912
-5.01324
-5.06184
-5.10639
-5.16457
-5.32898
-5.73275
-6.15062
-6.33821
-6.27765
-6.13053
-5.9689
-5.79995
-5.80868
-5.33831
-4.93217
-4.95716
-4.9893
-5.03277
-5.09249
-5.16245
-5.22907
-5.29404
-5.37367
-5.56745
-5.9845
-6.53234
-6.90188
-6.71246
-6.41906
-6.17436
-5.9737
-6.03786
-5.86721
-5.04053
-5.06635
-5.10105
-5.15027
-5.21883
-5.29897
-5.37864
-5.45566
-5.53821
-5.70936
-6.06318
-6.60437
-7.03148
-6.83838
-6.44629
-6.15158
-5.94547
-6.10642
-6.68009
-5.14897
-5.17417
-5.20868
-5.25898
-5.32863
-5.41044
-5.49513
-5.5737
-5.64042
-5.74407
-5.94789
-6.26611
-6.49163
-6.4625
-6.2094
-5.97267
-5.76969
-5.6432
-0.92954
-5.25689
-5.2797
-5.31076
-5.35621
-5.41808
-5.49091
-5.57142
-5.64293
-5.68175
-5.70395
-5.74842
-5.85592
-5.96786
-6.0028
-5.92817
-5.83703
-5.7619
-5.87936
-5.9862
-5.36395
-5.38287
-5.40791
-5.44361
-5.49139
-5.54585
-5.60805
-5.66532
-5.67633
-5.64436
-5.59227
-5.57899
-5.62961
-5.70078
-5.7388
-5.76493
-5.79726
-5.87976
-5.91167
-5.47005
-5.48419
-5.50205
-5.5265
-5.55714
-5.5902
-5.6238
-5.64561
-5.64931
-5.60771
-5.53213
-5.48542
-5.50966
-5.58373
-5.66416
-5.7412
-5.807
-5.8714
-5.91175
-5.57522
-5.58429
-5.59482
-5.60829
-5.62366
-5.63855
-5.65072
-5.65264
-5.64739
-5.61834
-5.57061
-5.54388
-5.55746
-5.6093
-5.69242
-5.78299
-5.85894
-5.91756
-5.95222
-5.67954
-5.68338
-5.68746
-5.69142
-5.69435
-5.6967
-5.69931
-5.70166
-5.69556
-5.68547
-5.66985
-5.65575
-5.66221
-5.7142
-5.80136
-5.89275
-5.96706
-6.02205
-6.03589
)
;

boundaryField
{
    leftWall
    {
        type            calculated;
        value           nonuniform List<scalar> 
50
(
507.474
448.051
387.254
325.698
264.072
202.519
140.993
78.4871
21.6098
1.48572
0.84643
0.441381
0.247102
0.0716188
-0.112075
-0.288475
-0.46069
-0.631787
-0.801633
-0.97033
-1.13836
-1.30587
-1.47284
-1.63923
-1.80495
-1.96994
-2.1341
-2.29738
-2.45971
-2.62103
-2.78131
-2.94052
-3.09865
-3.2557
-3.41166
-3.56655
-3.72042
-3.87329
-4.02524
-4.17632
-4.32661
-4.47617
-4.62509
-4.77345
-4.9213
-5.06875
-5.21587
-5.36273
-5.50937
-5.6559
)
;
    }
    rightWall
    {
        type            calculated;
        value           nonuniform List<scalar> 
50
(
1507.16
1454.71
1391.47
1296.53
1170.41
1017.82
876.323
770.054
601.394
395.229
290.942
276.979
289.008
301.558
278.344
246.3
231.031
240.389
209.554
156.283
131.575
53.4659
23.1679
8.35361
1.75358
-1.25151
-1.85673
-1.98845
-2.07355
-2.26612
-2.52144
-2.58227
-2.87372
-3.36802
-4.18678
-2.82406
-4.85649
-4.84091
-5.00596
-4.83769
-5.1372
-5.33831
-5.86721
-6.68009
-0.92954
-5.9862
-5.91167
-5.91175
-5.95222
-6.03589
)
;
    }
    lowerWall
    {
        type            calculated;
        value           nonuniform List<scalar> 
62
(
536.903
536.645
539.118
544.958
556.059
573.676
597.023
622.294
647.407
672.308
697.493
722.781
747.745
772.07
795.378
816.956
836.491
851.071
859.184
863.858
879.329
915.274
943.204
913.806
849.279
785.295
724.885
667.633
611.937
556.702
504.791
576.094
651.052
736.994
689.026
1273.06
1265.61
1294.45
1432.65
1520.39
1441.18
1231.08
1050.84
1275.04
1240.08
1240.72
1267.67
1113.34
893.271
740.113
674.684
656.453
685.568
785.745
968.101
1115.92
1159.75
1191.29
1306.03
1462.63
1521.74
1531.64
)
;
    }
    atmosphere
    {
        type            calculated;
        value           nonuniform List<scalar> 
46
(
-5.72904
-5.72904
-5.72904
-5.72904
-5.72904
-5.72904
-5.72904
-5.72904
-5.72904
-5.72904
-5.72904
-5.72904
-5.72904
-5.72904
-5.72904
-5.72904
-5.72904
-5.72904
-5.72904
-5.72904
-5.72904
-5.72904
-5.72904
-5.72904
-5.72904
-5.72905
-5.72984
-5.73121
-5.73229
-5.73303
-5.73338
-5.73329
-5.73216
-5.73008
-5.72906
-5.7291
-5.72915
-5.72922
-5.72956
-5.74462
-5.80043
-5.89124
-5.98265
-6.04845
-6.10905
-6.08977
)
;
    }
    defaultFaces
    {
        type            empty;
    }
}


// ************************************************************************* //
