/*--------------------------------*- C++ -*----------------------------------*\
| =========                 |                                                 |
| \\      /  F ield         | OpenFOAM: The Open Source CFD Toolbox           |
|  \\    /   O peration     | Version:  2206                                  |
|   \\  /    A nd           | Website:  www.openfoam.com                      |
|    \\/     M anipulation  |                                                 |
\*---------------------------------------------------------------------------*/
FoamFile
{
    version     2.0;
    format      ascii;
    arch        "LSB;label=32;scalar=64";
    class       volScalarField;
    location    "0.675";
    object      p_rgh;
}
// * * * * * * * * * * * * * * * * * * * * * * * * * * * * * * * * * * * * * //

dimensions      [1 -1 -2 0 0 0 0];

internalField   nonuniform List<scalar> 
2268
(
536.903
536.645
539.118
544.958
556.059
573.676
597.023
622.294
647.407
672.308
697.493
722.781
747.745
772.07
795.378
816.956
836.491
851.071
859.184
863.858
879.329
915.274
943.204
536.339
535.593
537.92
543.638
554.564
572.271
596.037
621.807
647.188
672.194
697.42
722.75
747.75
772.111
795.53
817.409
837.662
853.141
859.124
857.831
870.537
902.805
937.473
534.401
533.386
535.882
541.375
551.708
569.346
593.939
620.816
646.806
672.029
697.35
722.722
747.714
771.964
795.22
817.162
837.675
856.248
861.306
856.217
862.208
889.339
932.284
531.703
530.481
533.039
538.088
547.476
564.931
590.854
619.531
646.433
671.921
697.344
722.801
747.841
772.067
795.239
817.172
837.723
856.295
868.613
867.509
866.665
897.532
930.589
528.936
527.259
529.644
534.206
542.794
559.963
587.743
618.337
646.176
671.923
697.451
723.004
748.146
772.431
795.639
817.658
838.362
857.319
872.095
881.805
887.599
910.186
932.496
526.242
524.082
525.833
529.93
538.354
556.255
585.444
617.194
645.789
671.968
697.672
723.337
748.613
773.008
796.306
818.468
839.449
859.066
876.214
890.194
904.617
919.023
935.651
523.575
521.95
522.682
526.28
535.66
554.368
583.584
615.302
644.537
671.56
697.869
723.837
749.3
773.827
797.213
819.498
840.705
860.847
879.418
896.032
912.971
927.764
939.266
513.478
500.667
490.689
485.485
494.701
517.391
563.16
612.243
642.465
670.776
697.863
724.333
750.052
774.809
798.353
820.77
842.156
862.713
882.247
900.795
919.994
937.616
946.215
1275.04
1240.08
1240.72
1267.67
1113.34
893.271
740.113
674.684
656.453
685.568
785.745
968.101
1115.92
1159.75
1191.29
1306.03
1462.63
1521.74
1531.64
1274.85
1229.19
1263.72
1195.1
962.908
708.472
600.836
599.864
623.914
658.235
749.48
958.279
1132.94
1157.78
1149.34
1215.94
1361.57
1498.6
1536.26
1346.22
1301.18
1182.2
923.196
593.92
491.897
488.599
509.316
536.119
569.745
650.332
863.595
1067.16
1080.48
1034.61
1045.42
1153.4
1412.43
1527.39
1506.4
1358.79
985.498
590.605
462.521
449.323
468.022
495.182
521.913
552.202
616.788
819.182
1024.33
1013.33
978.316
929.71
918.259
1217.45
1486.82
1704.79
1317.82
786.99
482.151
432.834
435.765
460.718
491.583
518.648
547.738
660.888
911.179
1120.28
1084.08
959.537
906.836
834.065
937.244
1415
1661.87
1173.64
582.291
455.816
421.284
427.955
454.869
487.916
514.534
540.786
740.767
907.879
1050.78
1120.75
1004.84
869.894
803.099
825.695
1316.44
1481.05
1022
526.703
446.092
419.063
423.891
451.355
483.639
507.382
620.777
807.768
873.509
968.948
1029.06
1046.75
824.514
766.141
759.244
1227.82
1185.54
932.351
518.389
446.608
424.496
425.343
451.068
481.21
567.477
740.762
785.598
818.605
884.323
939.182
968.779
798.269
685.361
706.289
1166.07
198.797
189.325
188.697
202.879
237.462
305.042
402.667
513.256
606.796
668.713
697.582
725.388
751.726
776.799
800.461
822.923
844.463
865.681
886.483
907.199
929.716
954.023
981.584
2.14885
1.66234
11.0802
32.6625
58.008
85.3223
113.257
159.305
250.661
385.39
530.586
641.553
719.487
781.526
805.357
827.371
847.685
868.926
890.762
913.018
937.159
964.628
999.063
1.63082
1.394
1.31194
1.32772
1.28373
1.20189
1.12439
1.8784
8.96969
31.3901
80.638
165.851
278.525
414.237
568.312
681.889
756.291
843.695
890.475
917.802
941.512
968.739
1002.3
1.35049
1.21403
1.12858
1.20002
1.19515
1.13303
1.10195
1.14973
1.20592
1.24807
1.28907
1.32998
1.36831
1.62554
43.4136
111.222
180.519
272.733
417.301
538.545
628.328
802.022
944.721
1.28135
1.21223
1.17854
1.2079
1.17868
1.12228
1.08828
1.09988
1.15393
1.21252
1.26134
1.30989
1.37511
1.46767
1.51178
1.56212
1.64673
1.65611
1.48991
2.24315
93.6517
284.095
447.573
1.23106
1.20879
1.18149
1.16567
1.1509
1.13067
1.12651
1.14828
1.17375
1.20324
1.22941
1.26382
1.33004
1.39803
1.44521
1.46409
1.50393
1.52804
1.53756
1.57208
1.36808
2.58235
54.3172
1.17256
1.16842
1.14946
1.13389
1.12395
1.11555
1.11402
1.12178
1.13694
1.16146
1.18949
1.22025
1.27457
1.32809
1.34037
1.35746
1.35765
1.32454
1.28079
1.30705
1.28121
1.26797
3.09832
1.12135
1.11871
1.10861
1.10134
1.09437
1.08831
1.08851
1.09611
1.10898
1.12426
1.14349
1.16478
1.18791
1.21275
1.24016
1.25532
1.25312
1.23314
1.18266
1.21229
1.31396
1.33894
1.7722
1.07433
1.07198
1.06622
1.06168
1.05739
1.05458
1.05583
1.06165
1.07056
1.08159
1.0947
1.10987
1.12626
1.14348
1.15822
1.1639
1.15944
1.14551
1.11816
1.14197
1.39506
1.52994
1.50456
1.02843
1.0271
1.02343
1.02001
1.01743
1.01621
1.01728
1.02075
1.02639
1.03406
1.04318
1.0532
1.0637
1.07332
1.07998
1.07979
1.07248
1.06203
1.04478
1.02943
1.16815
1.40103
1.49052
0.98378
0.982675
0.980554
0.978308
0.976668
0.975582
0.975965
0.977857
0.981195
0.985658
0.990743
0.995947
1.00077
1.00414
1.00442
0.99983
0.991147
0.979307
0.960844
0.966331
1.25597
1.32182
1.44324
0.940277
0.939117
0.937882
0.936207
0.93489
0.9337
0.933365
0.933859
0.935067
0.936668
0.938351
0.939691
0.940047
0.938451
0.933769
0.925152
0.912767
0.896269
0.876945
0.914622
1.29467
1.36033
1.45092
0.897439
0.896444
0.895441
0.89389
0.892462
0.890974
0.889811
0.888904
0.88816
0.887351
0.886168
0.884116
0.88062
0.874958
0.866415
0.854464
0.838861
0.819478
0.79709
0.806984
1.17676
1.2363
1.01532
0.855122
0.854385
0.853275
0.85167
0.849933
0.847924
0.845864
0.843649
0.841183
0.838232
0.834499
0.82956
0.822941
0.814076
0.802422
0.787554
0.769156
0.747019
0.721598
0.703326
0.806953
0.834015
0.667454
0.813353
0.812769
0.811473
0.809707
0.80758
0.804947
0.802019
0.798608
0.794604
0.789776
0.783856
0.7765
0.767309
0.755831
0.741594
0.724206
0.703378
0.678906
0.650685
0.617818
0.57275
0.522805
0.533998
0.77216
0.771609
0.77013
0.768133
0.765563
0.762363
0.758593
0.754106
0.748761
0.742341
0.734588
0.725195
0.713828
0.70011
0.683633
0.663984
0.640828
0.61389
0.582591
0.545576
0.498253
0.438794
0.414961
0.731625
0.731011
0.729375
0.727126
0.724127
0.720365
0.715832
0.710399
0.703913
0.696159
0.686881
0.67579
0.662589
0.646946
0.628481
0.606743
0.581253
0.55147
0.516336
0.473502
0.417508
0.340997
0.24765
0.691835
0.691101
0.689324
0.686843
0.683438
0.679156
0.673947
0.667698
0.660249
0.65139
0.640865
0.628398
0.613699
0.596456
0.576297
0.552742
0.525178
0.492768
0.454059
0.40611
0.343255
0.2574
0.143807
0.652864
0.65201
0.650115
0.647373
0.643627
0.638886
0.633101
0.626161
0.617917
0.608163
0.596652
0.58311
0.567243
0.548752
0.527276
0.50234
0.473286
0.439183
0.398561
0.348927
0.286048
0.20483
0.10032
0.614781
0.613827
0.611827
0.608833
0.604819
0.599681
0.59342
0.585916
0.577034
0.56658
0.55432
0.539989
0.523279
0.503902
0.481523
0.45572
0.425895
0.391216
0.350493
0.30211
0.243902
0.174018
0.0930442
0.577649
0.576618
0.574529
0.571352
0.56708
0.561634
0.555007
0.54706
0.537687
0.526707
0.51391
0.499081
0.481823
0.461905
0.439024
0.412832
0.382867
0.348461
0.30869
0.262675
0.209636
0.149598
0.085016
0.541519
0.540431
0.538277
0.534964
0.530509
0.524839
0.517922
0.509655
0.499929
0.488573
0.475391
0.460428
0.44285
0.422686
0.399656
0.373447
0.343806
0.310226
0.271684
0.227894
0.178452
0.123484
0.0641279
0.506434
0.505304
0.503111
0.499712
0.495141
0.489325
0.482226
0.473765
0.463845
0.452327
0.439034
0.423785
0.406221
0.38614
0.363313
0.337491
0.30838
0.275553
0.238424
0.19652
0.149299
0.0962427
0.0363094
0.472418
0.471264
0.469055
0.465618
0.460999
0.455115
0.447936
0.439391
0.429399
0.41784
0.404548
0.389327
0.371932
0.35214
0.329743
0.304521
0.276199
0.24441
0.208693
0.168515
0.123164
0.071754
0.0125785
0.439482
0.438323
0.436124
0.432691
0.428082
0.422206
0.415039
0.406517
0.396574
0.385101
0.37195
0.356947
0.339887
0.320565
0.298794
0.274372
0.247047
0.216505
0.182343
0.144034
0.100888
0.0520223
-0.00394761
0.407634
0.406484
0.404317
0.400926
0.396376
0.390576
0.383507
0.375111
0.36533
0.354067
0.341194
0.326562
0.309988
0.291297
0.270323
0.24688
0.22074
0.191636
0.159223
0.123038
0.082487
0.0368281
-0.0149443
0.376869
0.375738
0.373621
0.370305
0.36586
0.360196
0.3533
0.34512
0.335604
0.324666
0.312199
0.29807
0.282123
0.264207
0.244178
0.221867
0.197083
0.169598
0.139124
0.105291
0.0676137
0.0255365
-0.0216156
0.347168
0.346059
0.344015
0.340801
0.3365
0.331022
0.324364
0.316479
0.307319
0.296809
0.284858
0.271351
0.256155
0.239141
0.220183
0.199141
0.175853
0.150134
0.121753
0.0904323
0.0558064
0.0175037
-0.0248791
0.318498
0.317413
0.315463
0.312375
0.308252
0.303003
0.296639
0.289113
0.280384
0.270389
0.259051
0.246267
0.231926
0.215921
0.198145
0.17848
0.156794
0.132946
0.106764
0.0780445
0.0465447
0.0120379
-0.0256925
0.290816
0.289756
0.287919
0.284978
0.281061
0.27608
0.270056
0.262944
0.254707
0.245296
0.234647
0.22267
0.209271
0.194359
0.177849
0.159643
0.139637
0.117727
0.0937966
0.0677085
0.0393172
0.00849826
-0.0248419
0.264063
0.263036
0.261323
0.258549
0.254866
0.250189
0.244545
0.237888
0.230194
0.221423
0.21152
0.200412
0.188018
0.174264
0.159079
0.142387
0.124113
0.104178
0.0825095
0.0590282
0.0336575
0.00634304
-0.0229275
0.238174
0.237195
0.235611
0.233022
0.229602
0.225261
0.22003
0.213864
0.206751
0.198662
0.189549
0.179352
0.168006
0.155452
0.141631
0.12649
0.109972
0.0920186
0.0725896
0.0516518
0.029174
0.00514999
-0.0203891
0.213081
0.212167
0.210714
0.208329
0.205195
0.201216
0.196426
0.190782
0.184286
0.176909
0.168616
0.159362
0.149095
0.137765
0.125329
0.111751
0.0969875
0.0809998
0.063769
0.0452913
0.0255649
0.00461076
-0.0175295
0.188713
0.187878
0.186557
0.184392
0.181565
0.177968
0.173644
0.168549
0.162695
0.156057
0.148611
0.140323
0.13115
0.121058
0.110014
0.0979927
0.0849637
0.0709074
0.0558196
0.0397113
0.022596
0.00449972
-0.0145448
0.164989
0.164249
0.16306
0.161128
0.158622
0.155422
0.151585
0.147063
0.141874
0.135997
0.129415
0.122105
0.114038
0.105184
0.0955257
0.0850446
0.0737221
0.0615527
0.0485423
0.0347087
0.0200674
0.00463772
-0.0115643
0.14183
0.141204
0.140148
0.138459
0.13628
0.13349
0.130156
0.126223
0.121717
0.116616
0.110911
0.104586
0.0976246
0.0900056
0.0817183
0.0727522
0.0630997
0.0527635
0.0417557
0.0300951
0.0177939
0.00486031
-0.0087098
0.119166
0.11867
0.117751
0.116312
0.114462
0.112093
0.109272
0.105939
0.102126
0.0978106
0.0929894
0.0876551
0.0817964
0.0754009
0.0684622
0.060976
0.0529457
0.0443794
0.0352902
0.0256946
0.0155997
0.00499987
-0.00612954
0.0969189
0.0965626
0.0957847
0.0945989
0.0930805
0.0911385
0.0888357
0.0861098
0.0829978
0.0794736
0.0755408
0.0711946
0.0664289
0.0612383
0.0556196
0.0495744
0.043113
0.0362456
0.0289836
0.0213405
0.0133163
0.00489227
-0.00397473
0.0749938
0.0747886
0.0741498
0.0732186
0.0720361
0.0705232
0.0687391
0.0666263
0.0642186
0.0614866
0.0584384
0.0550725
0.0513885
0.0473846
0.0430583
0.0384145
0.0334663
0.0282254
0.0227028
0.0169069
0.0108296
0.00444224
-0.00231015
0.0533197
0.0532665
0.0527685
0.0520973
0.0512531
0.0501717
0.0489059
0.0474044
0.0456958
0.0437521
0.0415845
0.0391935
0.036579
0.0337402
0.0306772
0.0273973
0.0239146
0.02024
0.0163798
0.0123368
0.00809971
0.00363817
-0.00110185
0.0318735
0.0319271
0.0315786
0.0311781
0.0306738
0.0300252
0.0292736
0.0283782
0.0273628
0.026204
0.0249115
0.0234844
0.0219247
0.0202347
0.0184161
0.0164722
0.0144132
0.0122491
0.00998361
0.00761577
0.00513517
0.00251648
-0.000281653
0.0105407
0.0106481
0.0105041
0.0103723
0.0102049
0.00998546
0.00973946
0.00944149
0.00910582
0.00872005
0.00829183
0.00781985
0.00730436
0.0067466
0.00614998
0.0055157
0.0048462
0.0041447
0.00341285
0.00265054
0.00185373
0.00100991
9.87661e-05
1046.91
1121.71
1207.86
1112.88
1055.33
1111.65
1189.71
1232.3
1048.18
1084.68
1113.43
1170.78
1035.45
989.033
790.361
619.138
507.826
287.884
105.279
68.1294
99.2924
130.922
115.761
91.5055
36.5523
108.532
133.491
136.979
27.4286
122.507
146.788
104.551
4.43335
91.9237
164.046
18.7158
1.39762
65.583
171.445
-10.4682
1.17836
41.9211
163.894
80.4084
1.23061
19.294
152.612
131.43
1.12903
30.6179
149.63
127.972
0.962531
33.303
151.888
51.652
0.83936
43.0103
124.573
22.6657
1.81727
27.8882
34.362
16.0635
0.984924
1.54344
-0.555704
0.790719
0.0208278
-0.457296
-0.745205
7.10582
-0.0708581
-0.351946
-0.747841
121.836
-0.0101388
-0.107719
7.5147
227.654
0.00813795
0.00149983
10.0478
67.4241
-0.0129252
-0.0791123
1.85322
-1.25581
-0.04926
-0.18501
-0.501466
-1.10689
-0.0726434
-0.209031
-0.42963
-0.775274
-0.0829415
-0.201818
-0.363793
-0.580775
-0.08673
-0.190273
-0.318359
-0.466681
-0.0858914
-0.17508
-0.278072
-0.386532
-0.0817123
-0.157999
-0.242168
-0.327059
-0.0755862
-0.140899
-0.210954
-0.280391
-0.0684272
-0.124403
-0.183367
-0.24145
-0.0608318
-0.108799
-0.158754
-0.207917
-0.0532122
-0.0942995
-0.136829
-0.178848
-0.04583
-0.0810308
-0.11747
-0.153935
-0.0388167
-0.0689862
-0.100481
-0.132832
-0.0322096
-0.058022
-0.0854424
-0.114942
-0.0260421
-0.0479535
-0.0717708
-0.0987174
-0.0204113
-0.0387315
-0.059141
-0.0834036
-0.0154355
-0.0304119
-0.0477137
-0.0686885
-0.0111142
-0.0228393
-0.0367148
-0.0541109
-0.00733953
-0.0158032
-0.0260865
-0.0393679
-0.00399887
-0.00913548
-0.0155772
-0.0242701
-0.00113187
-0.0028755
-0.00516582
-0.00877427
1062.21
781.84
520.189
460.66
441.72
443.058
497.463
567.596
692.041
747.452
615.618
596.226
752.635
809.348
813.27
666.101
489.752
601.447
993.958
1292.77
958.728
688.919
546.64
525.019
697.162
905.781
902.473
788.198
569.998
441.729
396.328
504.035
593.406
497.208
360.379
313.418
419.509
763.562
1382.35
1387.93
1393.74
1268.53
1350.7
1424.16
1196.05
926.632
770.205
637.282
510.555
371.757
272.028
269.797
265.945
259.275
267.988
309.072
616.906
797.147
1170.27
1549.79
1816.54
1420.29
1205.79
1261.37
1297.17
1152.17
1022.66
875.81
520.877
277.834
271.238
269.704
269.371
279.508
287.751
584.385
262.057
1002.3
1562.64
1370.17
1321.38
1302.12
1425.02
1331.2
1164.93
1013.31
940.625
898.01
624.688
297.621
275.54
284.442
302.422
301.965
626.328
222.827
952.008
1394.97
1384.16
1277.72
942.404
794.221
1051.82
1083.71
982.19
763.368
676.957
803.669
754.774
784.275
880.44
446.597
303.26
783.257
527.916
936.709
1063.16
1098.4
799.721
179.768
87.21
346.704
1046.99
927.342
340.026
344.402
368.873
733.606
943.465
954.679
708.475
279.923
968.413
345.101
539.489
587.777
672.616
374.379
52.9792
45.1147
58.1088
534.557
981.251
440.288
394.303
405.463
412.392
522.603
551.98
240.154
276.233
1280.64
-4.46808
-16.6547
-8.99364
23.2418
310.051
39.4092
28.8698
29.963
204.617
907.191
1059.66
668.612
473.885
799.838
864.131
376.693
331.919
517.903
1583.23
-20.8033
-18.3163
-13.8597
26.0346
208.734
71.9023
15.1714
13.233
14.806
382.554
1140.75
1228.63
1302.51
1566.95
1622.84
1638.74
1542.06
1693.52
1776.62
-17.9939
-16.2661
-13.0498
60.4309
311.702
93.7259
5.50841
4.22356
2.83193
0.778876
339.661
1147.85
1445.66
1551.73
1667.71
1784.39
1878.14
1918.95
1861.69
-12.6505
-13.5
-11.9122
103.311
376.654
149.001
1.97882
1.51101
1.00789
0.281674
-0.871424
-1.92381
153.989
371.665
575.439
900.115
1317.54
1832.04
1923.86
-10.7771
-10.6306
-10.6108
136.893
400.257
247.514
0.668182
0.360987
-0.00242905
-0.335916
-0.38156
-0.352835
-0.292079
-0.111136
0.465359
3.43415
18.1501
546.138
1753.6
-7.39008
-6.97201
-4.70444
277.547
425.506
208.256
-0.434839
-0.632622
-0.825462
-0.913229
-0.739014
-0.424376
-0.119472
0.103246
0.25928
0.699933
3.68199
17.2619
272.272
-2.92218
-3.63843
94.3544
441.331
451.771
44.356
-1.08362
-1.3434
-1.37458
-1.16503
-0.835213
-0.45075
-0.162195
0.0263097
0.14292
0.191906
0.780861
18.84
44.8461
0.820396
6.2459
322.674
473.925
194.999
-0.30398
-0.922405
-1.43092
-1.53411
-1.18264
-0.836919
-0.469511
-0.193659
-0.0390692
0.0789538
0.0980927
0.699226
46.0788
118.011
1.10713
264.526
346.618
198.431
-0.466335
-0.12211
-0.58766
-1.07027
-1.22921
-1.0287
-0.730894
-0.440813
-0.23043
-0.083289
0.0359116
0.0563386
8.19726
25.2547
185.649
254.991
289.393
243.382
-0.583126
-0.386733
-0.262659
-0.373283
-0.634559
-0.790609
-0.736311
-0.548711
-0.36872
-0.223461
-0.117148
-0.0345755
-0.00856148
18.6263
18.5919
195.458
278.971
264.745
-1.0417
-0.913837
-0.0940847
0.145758
0.0946166
-0.379716
-0.523943
-0.491944
-0.397088
-0.290447
-0.196929
-0.122743
-0.0758827
-0.0581058
11.3778
33.8219
228.569
242.555
15.4701
-1.19436
-0.336121
-0.431528
-0.472149
-0.405268
-0.413535
-0.407539
-0.360286
-0.300111
-0.225548
-0.152117
-0.0903807
-0.0536584
-0.0212898
-0.085379
146.101
255.491
23.4478
-1.40231
-0.635419
-0.86783
-0.767526
-0.580374
-0.473506
-0.412975
-0.365597
-0.311121
-0.243225
-0.16589
-0.0933812
-0.0287695
0.016189
0.0760334
0.144763
235.584
266.525
-1.86287
-1.24072
-1.24157
-1.00538
-0.766071
-0.60184
-0.490149
-0.408793
-0.341032
-0.273953
-0.129687
0.0804067
0.0375826
0.0510968
0.105795
0.168687
0.227484
91.9813
277.315
-1.29847
-1.23602
-1.06636
-0.861532
-0.698023
-0.575504
-0.480339
-0.400199
-0.326236
-0.213803
0.230806
0.362655
0.293612
0.146799
0.228041
0.308484
0.374182
0.19046
285.886
-0.913674
-0.912367
-0.832423
-0.724085
-0.623524
-0.538286
-0.464585
-0.393387
-0.317125
-0.102072
0.3039
0.421536
0.450327
0.225422
0.340988
0.666713
0.652056
1.01506
272.126
-0.68404
-0.702727
-0.668549
-0.618425
-0.561838
-0.507983
-0.447772
-0.386793
-0.311141
-0.217756
0.254956
0.45069
0.415519
0.206719
1.771
16.0025
7.01873
1.46526
273.187
-0.543789
-0.569848
-0.568848
-0.543754
-0.517518
-0.457194
-0.40582
-0.37638
-0.307245
-0.218595
0.00988784
0.434175
0.279046
0.172417
10.9128
26.9917
27.089
10.9439
285.171
-0.448951
-0.478262
-0.49048
-0.490389
-0.446059
-0.42312
-0.392376
-0.374299
-0.306327
-0.234629
0.0233049
0.370124
0.174739
1.09599
24.7194
27.595
26.8927
22.8103
294.557
-0.380712
-0.410873
-0.430601
-0.399372
-0.398999
-0.39404
-0.412015
-0.363114
-0.309287
-0.213846
0.232709
0.126712
0.086971
3.64162
24.1836
15.1221
4.8617
23.818
281.012
-0.327285
-0.35649
-0.379466
-0.357795
-0.379818
-0.405122
-0.379942
-0.343582
-0.311693
0.0809873
0.198245
0.0650738
0.0586938
6.2555
8.45083
-0.801598
-0.708233
6.18072
17.2927
-0.282406
-0.309422
-0.330756
-0.350694
-0.364011
-0.362595
-0.347274
-0.327163
-0.246366
0.0988041
0.0940466
0.0245905
1.83603
8.2375
-0.673164
-0.759886
-0.752266
-0.939028
-0.658332
-0.243599
-0.268019
-0.289963
-0.309664
-0.324713
-0.330208
-0.327618
-0.320601
-0.210662
0.0736634
-0.0312477
0.101468
6.64398
6.83757
-0.71451
-0.787565
-0.777519
-0.910064
129.396
-0.210413
-0.233332
-0.25543
-0.277834
-0.299305
-0.318027
-0.326499
-0.334322
-0.272193
-0.103125
-0.209885
2.67551
6.4322
-0.920227
-0.902016
-0.915602
-0.892808
-0.924219
572.575
-0.1829
-0.205602
-0.22994
-0.257761
-0.290272
-0.325952
-0.320843
-0.359588
-0.391119
-0.489312
0.0566213
5.49482
5.2627
-1.22034
-1.1676
-1.1057
-1.0167
-0.0480222
593.357
-0.160545
-0.184147
-0.212282
-0.247849
-0.294231
-0.348353
-0.331657
-0.201869
-0.469809
-0.633169
-0.465525
4.8777
6.14312
-1.58832
-1.41465
-1.30366
-1.1348
3.10985
609.661
-0.142088
-0.167083
-0.199217
-0.242693
-0.302413
-0.372367
-0.219145
-0.227634
-0.543613
-0.739953
-1.09946
5.08455
5.98258
-0.202216
-1.57689
-1.38286
-1.18333
10.6925
625.637
-0.125257
-0.151071
-0.185774
-0.234993
-0.303557
-0.272075
-0.179811
-0.256561
-0.46134
-0.754806
-1.10602
3.25449
6.18974
1.63105
-1.5268
-1.23594
-1.03001
19.3104
639.656
-0.108496
-0.133697
-0.168208
-0.218513
-0.288162
-0.114898
-0.163612
-0.242153
-0.308898
-0.658603
-0.855958
0.519076
2.95829
-0.256732
-1.16601
-0.932013
-0.729171
25.6283
441.944
-0.0912227
-0.114031
-0.145098
-0.19055
-0.242981
-0.0400047
-0.107445
-0.178955
-0.217776
-0.36997
-0.521669
-0.587345
-0.521905
-0.833157
-0.762178
-0.671317
-0.596214
8.38709
-0.820538
-0.0730908
-0.0920143
-0.117053
-0.152755
-0.194695
-0.0686803
-0.0116551
-0.0689207
-0.0799369
-0.0923444
-0.229673
-0.28318
-0.327729
-0.403267
-0.445035
-0.473635
-0.506401
-0.588896
-0.62081
-0.0539956
-0.0681381
-0.0859949
-0.11045
-0.140891
-0.133368
-0.00480834
0.0253197
-0.0912056
-0.120314
-0.0845766
-0.0660792
-0.0844694
-0.160732
-0.247635
-0.32515
-0.390944
-0.455345
-0.495694
-0.033974
-0.0430412
-0.0535744
-0.067028
-0.0824084
-0.0972997
-0.109293
-0.104553
-0.106039
-0.0769455
-0.0290921
2.70377e-06
-0.00675005
-0.0643467
-0.15117
-0.241746
-0.317696
-0.376314
-0.410969
-0.0130964
-0.0169367
-0.0210145
-0.024975
-0.0279049
-0.0302553
-0.0328642
-0.035219
-0.0290597
-0.0189211
-0.00323126
0.0154846
0.0116306
-0.0475936
-0.134912
-0.226307
-0.300619
-0.355605
-0.369451
)
;

boundaryField
{
    leftWall
    {
        type            fixedFluxPressure;
        gradient        uniform 0;
        value           nonuniform List<scalar> 
50
(
536.903
536.339
534.401
531.703
528.936
526.242
523.575
513.478
198.797
2.14885
1.63082
1.35049
1.28135
1.23106
1.17256
1.12135
1.07433
1.02843
0.98378
0.940277
0.897439
0.855122
0.813353
0.77216
0.731625
0.691835
0.652864
0.614781
0.577649
0.541519
0.506434
0.472418
0.439482
0.407634
0.376869
0.347168
0.318498
0.290816
0.264063
0.238174
0.213081
0.188713
0.164989
0.14183
0.119166
0.0969189
0.0749938
0.0533197
0.0318735
0.0105407
)
;
    }
    rightWall
    {
        type            fixedFluxPressure;
        gradient        uniform 0;
        value           nonuniform List<scalar> 
50
(
1531.64
1536.26
1527.39
1486.82
1415
1316.44
1227.82
1166.07
993.958
763.562
616.906
584.385
626.328
783.257
968.413
1280.64
1583.23
1776.62
1861.69
1923.86
1753.6
272.272
44.8461
118.011
185.649
195.458
228.569
255.491
266.525
277.315
285.886
272.126
273.187
285.171
294.557
281.012
17.2927
-0.658332
129.396
572.575
593.357
609.661
625.637
639.656
441.944
-0.820538
-0.62081
-0.495694
-0.410969
-0.369451
)
;
    }
    lowerWall
    {
        type            fixedFluxPressure;
        gradient        uniform 0;
        value           nonuniform List<scalar> 
62
(
536.903
536.645
539.118
544.958
556.059
573.676
597.023
622.294
647.407
672.308
697.493
722.781
747.745
772.07
795.378
816.956
836.491
851.071
859.184
863.858
879.329
915.274
943.204
943.204
937.473
932.284
930.589
932.496
935.651
939.266
946.215
1046.91
1121.71
1207.86
1112.88
1275.04
1274.85
1346.22
1506.4
1704.79
1661.87
1481.05
1185.54
1275.04
1240.08
1240.72
1267.67
1113.34
893.271
740.113
674.684
656.453
685.568
785.745
968.101
1115.92
1159.75
1191.29
1306.03
1462.63
1521.74
1531.64
)
;
    }
    atmosphere
    {
        type            totalPressure;
        rho             rho;
        psi             none;
        gamma           1;
        p0              uniform 0;
        value           nonuniform List<scalar> 
46
(
0
0
0
0
0
0
0
0
0
0
0
0
0
0
0
0
0
0
0
0
0
0
0
0
0
-9.32814e-06
-0.000798058
-0.00216572
-0.00324986
-0.00398791
-0.00433753
-0.00424777
-0.00311983
-0.00103856
-2.43262e-05
0
0
0
-0.000522846
-0.015576
-0.0713926
-0.162197
-0.253614
-0.319409
-0.380014
-0.360726
)
;
    }
    defaultFaces
    {
        type            empty;
    }
}


// ************************************************************************* //
