/*--------------------------------*- C++ -*----------------------------------*\
| =========                 |                                                 |
| \\      /  F ield         | OpenFOAM: The Open Source CFD Toolbox           |
|  \\    /   O peration     | Version:  2206                                  |
|   \\  /    A nd           | Website:  www.openfoam.com                      |
|    \\/     M anipulation  |                                                 |
\*---------------------------------------------------------------------------*/
FoamFile
{
    version     2.0;
    format      ascii;
    arch        "LSB;label=32;scalar=64";
    class       surfaceScalarField;
    location    "0.675";
    object      phi;
}
// * * * * * * * * * * * * * * * * * * * * * * * * * * * * * * * * * * * * * //

dimensions      [0 3 -1 0 0 0 0];

oriented        oriented;

internalField   nonuniform List<scalar> 
4432
(
-3.56214e-06
3.56214e-06
-7.13698e-06
3.57485e-06
-9.3042e-06
2.16722e-06
-1.05421e-05
1.23789e-06
-1.07384e-05
1.96338e-07
-9.40991e-06
-1.32854e-06
-6.65396e-06
-2.75595e-06
-3.72042e-06
-2.93355e-06
-1.77093e-06
-1.94948e-06
-1.14049e-06
-6.30448e-07
-1.66675e-06
5.26263e-07
-3.05101e-06
1.38426e-06
-4.98451e-06
1.9335e-06
-7.31396e-06
2.32946e-06
-1.0189e-05
2.87501e-06
-1.3393e-05
3.20407e-06
-1.59571e-05
2.56405e-06
-1.82526e-05
2.29547e-06
-2.29732e-05
4.72063e-06
-2.84993e-05
5.52608e-06
-2.69424e-05
-1.55692e-06
-1.53679e-05
-1.15744e-05
-1.53679e-05
-4.47338e-06
8.03552e-06
-7.49497e-06
6.59645e-06
-9.08787e-06
3.76012e-06
-1.03377e-05
2.48775e-06
-1.08654e-05
7.24005e-07
-9.78312e-06
-2.41085e-06
-6.98567e-06
-5.5534e-06
-3.84124e-06
-6.07799e-06
-1.7196e-06
-4.07112e-06
-9.60678e-07
-1.38937e-06
-1.12245e-06
6.88029e-07
-1.85284e-06
2.11466e-06
-2.963e-06
3.04365e-06
-4.40136e-06
3.76784e-06
-6.3483e-06
4.82194e-06
-9.27157e-06
6.12735e-06
-1.36897e-05
6.98216e-06
-1.92377e-05
7.84349e-06
-2.38885e-05
9.37139e-06
-2.46424e-05
6.28004e-06
-2.03623e-05
-5.83704e-06
-1.14234e-05
-2.05134e-05
-2.67913e-05
-3.58454e-06
1.16201e-05
-6.03397e-06
9.04589e-06
-7.80442e-06
5.53056e-06
-9.61342e-06
4.29675e-06
-1.06984e-05
1.80896e-06
-9.9424e-06
-3.16684e-06
-7.35238e-06
-8.14342e-06
-4.27279e-06
-9.15758e-06
-2.13565e-06
-6.20826e-06
-1.40139e-06
-2.12363e-06
-1.6988e-06
9.85435e-07
-2.48194e-06
2.89781e-06
-3.36356e-06
3.92526e-06
-4.14521e-06
4.5495e-06
-4.70175e-06
5.37848e-06
-5.3344e-06
6.76002e-06
-6.96948e-06
8.61723e-06
-9.81731e-06
1.06913e-05
-1.217e-05
1.17241e-05
-1.23613e-05
6.47139e-06
-1.00155e-05
-8.18289e-06
-5.23874e-06
-2.52901e-05
-3.203e-05
-2.1641e-06
1.37842e-05
-3.89789e-06
1.07797e-05
-5.58649e-06
7.21915e-06
-7.26833e-06
5.97859e-06
-8.13686e-06
2.67749e-06
-7.50921e-06
-3.79448e-06
-5.7909e-06
-9.86173e-06
-3.86875e-06
-1.10797e-05
-2.49647e-06
-7.58054e-06
-2.05047e-06
-2.56962e-06
-2.46287e-06
1.39783e-06
-3.35728e-06
3.79222e-06
-4.31959e-06
4.88756e-06
-5.01643e-06
5.24636e-06
-5.29388e-06
5.65592e-06
-4.9218e-06
6.38795e-06
-3.99834e-06
7.69376e-06
-2.86676e-06
9.55975e-06
-1.33818e-06
1.01955e-05
-2.88599e-08
5.16206e-06
4.45938e-07
-8.65768e-06
8.19798e-07
-2.5664e-05
-3.12102e-05
-3.23305e-07
1.41075e-05
-6.52e-07
1.11084e-05
-1.6112e-06
8.17835e-06
-2.194e-06
6.5614e-06
-1.81501e-06
2.2985e-06
-1.02705e-06
-4.58244e-06
-1.00039e-06
-9.88838e-06
-1.61162e-06
-1.04685e-05
-2.20473e-06
-6.98743e-06
-2.71677e-06
-2.05758e-06
-3.41007e-06
2.09112e-06
-4.30208e-06
4.68423e-06
-5.19272e-06
5.77819e-06
-5.78819e-06
5.84183e-06
-6.00755e-06
5.87527e-06
-5.64768e-06
6.02808e-06
-4.21971e-06
6.26579e-06
-1.44325e-06
6.7833e-06
2.49657e-06
6.25568e-06
5.80442e-06
1.85423e-06
5.73726e-06
-8.59053e-06
3.45037e-06
-2.33771e-05
-2.77599e-05
2.08279e-06
1.20247e-05
3.61434e-06
9.57684e-06
4.47699e-06
7.31571e-06
5.78589e-06
5.2525e-06
7.28597e-06
7.98432e-07
7.51795e-06
-4.81442e-06
5.4744e-06
-7.84483e-06
2.17235e-06
-7.16645e-06
-1.05584e-06
-3.75924e-06
-3.10667e-06
-6.74803e-09
-4.3916e-06
3.37605e-06
-5.39522e-06
5.68786e-06
-6.14796e-06
6.53092e-06
-6.5059e-06
6.19978e-06
-6.535e-06
5.90436e-06
-6.16277e-06
5.65585e-06
-5.07301e-06
5.17603e-06
-2.77059e-06
4.48089e-06
8.37275e-07
2.64782e-06
4.4029e-06
-1.7114e-06
5.06626e-06
-9.25389e-06
3.35792e-06
-2.16688e-05
-2.44019e-05
3.979e-06
8.04569e-06
8.09302e-06
5.46281e-06
1.20746e-05
3.33414e-06
1.58731e-05
1.45395e-06
1.78058e-05
-1.13418e-06
1.58208e-05
-2.82944e-06
1.09113e-05
-2.93531e-06
5.27765e-06
-1.53283e-06
3.21084e-07
1.19732e-06
-3.11976e-06
3.43409e-06
-5.24792e-06
5.50422e-06
-6.52566e-06
6.96559e-06
-7.19107e-06
7.19632e-06
-7.24068e-06
6.24939e-06
-7.00575e-06
5.66941e-06
-6.51525e-06
5.16535e-06
-5.57917e-06
4.23994e-06
-3.91244e-06
2.81416e-06
-1.64766e-06
3.83045e-07
9.02358e-07
-4.26142e-06
1.92315e-06
-1.02747e-05
1.76514e-06
-2.15108e-05
-2.26368e-05
7.36272e-06
6.82968e-07
1.54912e-05
-2.66566e-06
2.1232e-05
-2.40668e-06
2.40717e-05
-1.38573e-06
2.29129e-05
2.45952e-08
1.76133e-05
2.47015e-06
1.08556e-05
3.82246e-06
4.97576e-06
4.34699e-06
4.86634e-07
5.68645e-06
-2.80718e-06
6.7279e-06
-5.42451e-06
8.12155e-06
-7.26976e-06
8.81084e-06
-8.21416e-06
8.14071e-06
-8.10417e-06
6.13939e-06
-7.64414e-06
5.20937e-06
-6.97437e-06
4.49558e-06
-5.96947e-06
3.23505e-06
-4.46112e-06
1.30581e-06
-2.91313e-06
-1.16495e-06
-1.598e-06
-5.57656e-06
-1.1215e-06
-1.07512e-05
-1.13071e-06
-2.15016e-05
-2.37675e-05
5.34775e-05
-5.34775e-05
4.49479e-05
8.5295e-06
7.11337e-06
3.78346e-05
-5.2677e-05
5.97904e-05
-0.000111828
5.91508e-05
-0.000152633
4.0805e-05
-0.000171923
1.92897e-05
-0.000175608
3.68582e-06
-0.000172105
-3.50388e-06
-0.000166189
-5.91548e-06
-0.000158012
-8.17745e-06
-0.000144643
-1.33688e-05
-0.000130126
-1.45173e-05
-0.000117251
-1.28746e-05
-0.000102894
-1.43572e-05
-8.11568e-05
-2.1737e-05
-4.4609e-05
-3.65477e-05
-2.4044e-06
-4.22047e-05
-2.40439e-06
1.25338e-05
-6.60112e-05
-2.69212e-05
4.79844e-05
-8.9012e-05
9.99254e-05
-0.000145357
0.000116135
-0.000182665
9.64587e-05
-0.000195233
5.33737e-05
-0.000192674
1.67307e-05
-0.000186799
-2.18956e-06
-0.00018079
-9.51278e-06
-0.000173497
-1.32088e-05
-0.000165212
-1.64623e-05
-0.000151961
-2.66199e-05
-0.000139587
-2.68905e-05
-0.000130767
-2.16948e-05
-0.000118404
-2.67201e-05
-9.89617e-05
-4.11796e-05
-6.84205e-05
-6.7089e-05
-2.78766e-05
-8.27485e-05
-3.0281e-05
-4.42199e-05
-2.17913e-05
-9.61506e-05
9.99151e-05
-0.000150754
0.000154529
-0.000195587
0.000160968
-0.000229376
0.000130248
-0.000248081
7.2079e-05
-0.000245659
1.43081e-05
-0.000219398
-2.84504e-05
-0.000185808
-4.31034e-05
-0.000151494
-4.7522e-05
-0.000122252
-4.57051e-05
-9.43256e-05
-5.45459e-05
-8.08745e-05
-4.03416e-05
-8.98222e-05
-1.27471e-05
-9.80109e-05
-1.85314e-05
-9.67274e-05
-4.2463e-05
-7.81359e-05
-8.56805e-05
-4.01687e-05
-0.000120716
-7.04497e-05
-6.92048e-05
4.74135e-05
-0.000125188
0.000155898
-0.000175481
0.000204822
-0.000218716
0.000204203
-0.000258464
0.000169996
-0.000266108
7.97229e-05
-0.000216021
-3.5779e-05
-0.000149439
-9.5032e-05
-0.000103811
-8.87316e-05
-6.38263e-05
-8.75066e-05
-8.64181e-06
-0.00010089
4.12476e-05
-0.000104435
8.00046e-05
-7.90986e-05
0.000107936
-4.06787e-05
6.26671e-05
2.67376e-05
-3.36052e-05
5.38093e-05
-6.84963e-05
-5.07894e-05
-4.26103e-05
-0.000146602
-0.00011306
-7.83969e-05
0.00012581
-0.00013066
0.000208161
-0.000180249
0.000254412
-0.000224999
0.000248953
-0.000236385
0.000181382
-0.000177355
2.0693e-05
-9.3252e-05
-0.000119882
-3.49417e-05
-0.000153342
9.49285e-06
-0.000133166
3.93601e-05
-0.000117374
6.86211e-05
-0.000130151
8.01828e-05
-0.000115997
8.45079e-05
-8.34237e-05
9.94115e-05
-5.55823e-05
0.00012718
-1.03075e-06
8.10873e-05
9.99016e-05
-3.44266e-05
6.47246e-05
-3.62827e-05
-0.000144746
-0.000149343
-6.79695e-05
0.00019378
-0.000109679
0.000249871
-0.000158773
0.000303505
-0.000178935
0.000269115
-0.000138382
0.00014083
-4.82075e-05
-6.94821e-05
1.44102e-05
-0.0001825
4.75829e-05
-0.000186515
7.93523e-05
-0.000164936
0.000105235
-0.000143256
0.000106286
-0.000131202
0.000100537
-0.000110248
9.62647e-05
-7.91516e-05
9.46382e-05
-5.39558e-05
0.000117371
-2.37634e-05
0.000136239
8.10332e-05
3.69709e-05
0.000163993
-2.45632e-05
-8.32116e-05
-0.000173906
-4.9811e-05
0.000243591
-6.28078e-05
0.000262867
-9.51448e-05
0.000335842
-9.37959e-05
0.000267766
-1.5661e-05
6.26947e-05
5.93191e-05
-0.000144462
8.17394e-05
-0.00020492
9.6662e-05
-0.000201438
0.000110044
-0.000178318
0.000114525
-0.000147737
0.000109123
-0.0001258
0.000103681
-0.000104805
0.000101156
-7.66267e-05
9.82011e-05
-5.10011e-05
0.000103964
-2.95268e-05
0.00012848
5.65182e-05
7.15575e-05
0.000220915
-1.00523e-05
-1.6018e-06
-0.000183958
-2.33981e-05
0.000266989
-2.17641e-05
0.000261233
-6.89924e-06
0.000320978
2.11446e-05
0.000239722
7.98271e-05
4.01233e-06
0.000110769
-0.000175404
0.000110616
-0.000204767
0.000110405
-0.000201227
0.000109191
-0.000177104
0.000107823
-0.000146369
0.000105596
-0.000123573
0.00010272
-0.000101929
0.000100815
-7.47222e-05
9.83507e-05
-4.85367e-05
9.88637e-05
-3.00399e-05
0.00011849
3.68918e-05
8.24949e-05
0.00025691
4.27718e-06
7.66159e-05
-0.000179681
1.38522e-05
-1.31692e-05
1.5515e-05
-4.32839e-06
1.01431e-05
2.96521e-06
5.40315e-06
3.35418e-06
1.46893e-06
3.95882e-06
-1.32026e-06
5.25934e-06
-3.4589e-06
5.9611e-06
-5.41431e-06
6.3024e-06
-7.23805e-06
7.51018e-06
-9.24506e-06
8.73491e-06
-1.21077e-05
1.09842e-05
-1.57732e-05
1.24764e-05
-1.81548e-05
1.05223e-05
-1.74501e-05
5.43468e-06
-1.64841e-05
4.24338e-06
-1.55894e-05
3.6009e-06
-1.42298e-05
1.87539e-06
-1.16056e-05
-1.31833e-06
-9.09063e-06
-3.67998e-06
-7.9891e-06
-6.67808e-06
-8.53671e-06
-1.02036e-05
-1.43046e-05
-1.57337e-05
-1.28385e-05
-2.52336e-05
-9.19338e-05
7.87646e-05
-0.000135157
3.88951e-05
-0.000110087
-2.21049e-05
-7.93017e-05
-2.74313e-05
-6.10603e-05
-1.42825e-05
-5.35872e-05
-2.21373e-06
-5.13367e-05
3.71053e-06
-4.84565e-05
3.4222e-06
-4.05825e-05
-3.63818e-07
-3.1432e-05
-4.15538e-07
-2.41842e-05
3.73637e-06
-1.9242e-05
7.53417e-06
-1.53382e-05
6.6185e-06
-1.29756e-05
3.07203e-06
-1.30066e-05
4.27443e-06
-1.43746e-05
4.96881e-06
-1.48538e-05
2.35466e-06
-1.2717e-05
-3.45513e-06
-1.0506e-05
-5.89099e-06
-9.9736e-06
-7.21051e-06
-1.09451e-05
-9.23206e-06
-1.4286e-05
-1.23928e-05
-1.06574e-05
-1.64671e-05
-3.89825e-05
0.000117747
-7.58991e-05
7.58116e-05
-0.000105288
7.28406e-06
-0.000135473
2.75359e-06
-0.000165233
1.54776e-05
-0.000186872
1.94257e-05
-0.000191128
7.96604e-06
-0.000176689
-1.10164e-05
-0.000150394
-2.66587e-05
-0.000116792
-3.40178e-05
-8.71585e-05
-2.58972e-05
-6.89209e-05
-1.07034e-05
-5.58084e-05
-6.49397e-06
-4.12793e-05
-1.1457e-05
-2.5529e-05
-1.14759e-05
-1.58573e-05
-4.70296e-06
-9.50151e-06
-4.0011e-06
-5.83069e-06
-7.12596e-06
-5.59925e-06
-6.12242e-06
-6.89279e-06
-5.91698e-06
-7.299e-06
-8.82585e-06
-8.80122e-06
-1.08906e-05
-1.02412e-05
-9.21745e-06
9.98883e-06
0.000107758
-9.59892e-06
9.53993e-05
-4.32203e-05
4.09055e-05
-6.84557e-05
2.79891e-05
-8.3336e-05
3.03581e-05
-9.50051e-05
3.10949e-05
-0.000103026
1.59869e-05
-0.00011296
-1.08279e-06
-0.000132619
-6.99891e-06
-0.000159001
-7.63644e-06
-0.000177467
-7.4309e-06
-0.000179654
-8.51621e-06
-0.000166704
-1.94446e-05
-0.000148664
-2.94968e-05
-0.000106368
-5.37718e-05
-7.92031e-05
-3.1868e-05
-6.73446e-05
-1.58596e-05
-5.59702e-05
-1.85004e-05
-4.33479e-05
-1.87447e-05
-3.58904e-05
-1.33745e-05
-2.47931e-05
-1.99231e-05
-1.83713e-05
-1.73124e-05
-8.45797e-06
-2.01545e-05
2.39864e-05
8.37718e-05
2.36499e-05
9.57359e-05
5.09915e-06
5.94564e-05
4.4669e-07
3.26417e-05
-2.47085e-06
3.32758e-05
-6.03281e-06
3.4657e-05
-5.72431e-06
1.56784e-05
-9.75173e-06
2.94458e-06
-2.21921e-05
5.44148e-06
-4.89923e-05
1.91637e-05
-7.86072e-05
2.2184e-05
-9.69129e-05
9.78936e-06
-0.0001252
8.84239e-06
-0.000154874
1.77427e-07
-0.000202731
-5.91517e-06
-0.000246717
1.21179e-05
-0.000273061
1.04847e-05
-0.000277133
-1.4429e-05
-0.000254662
-4.12159e-05
-0.000211098
-5.69381e-05
-0.000158307
-7.27144e-05
-0.00012422
-5.13993e-05
-1.91369e-05
-0.000113541
1.20665e-05
7.17054e-05
2.92448e-05
7.85577e-05
2.77778e-05
6.09235e-05
2.12412e-05
3.91784e-05
1.85049e-05
3.60122e-05
1.58982e-05
3.72637e-05
5.17836e-06
2.63982e-05
-7.59944e-06
1.57223e-05
-1.32815e-05
1.11235e-05
-1.31318e-05
1.90139e-05
-1.99484e-05
2.90004e-05
-3.24177e-05
2.22586e-05
-4.17427e-05
1.81673e-05
-5.44537e-05
1.28884e-05
-8.46647e-05
2.42957e-05
-0.000113872
4.13253e-05
-0.000147469
4.40812e-05
-0.000200865
3.89673e-05
-0.000271909
2.98277e-05
-0.00032303
-5.81635e-06
-0.000339112
-5.6633e-05
-0.000317524
-7.29869e-05
-6.29714e-05
-0.00027369
2.88719e-06
6.88182e-05
2.05647e-05
6.08804e-05
2.55042e-05
5.59841e-05
1.96681e-05
4.50147e-05
1.43494e-05
4.13309e-05
1.2047e-05
3.95661e-05
4.88577e-06
3.35593e-05
-6.53032e-06
2.71383e-05
-1.79537e-05
2.25468e-05
-2.22755e-05
2.33355e-05
-2.29489e-05
2.96736e-05
-3.24261e-05
3.17358e-05
-4.21901e-05
2.79313e-05
-4.91012e-05
1.97993e-05
-5.25964e-05
2.77908e-05
-5.42923e-05
4.30211e-05
-6.17713e-05
5.15601e-05
-7.97068e-05
5.69028e-05
-0.000113197
6.3318e-05
-0.000173477
5.44633e-05
-0.000245677
1.55673e-05
-0.000303539
-1.51251e-05
-4.81405e-05
-0.000318369
1.23231e-06
6.7586e-05
1.1093e-05
5.10198e-05
1.48601e-05
5.22171e-05
1.25143e-05
4.73605e-05
9.35158e-06
4.44936e-05
6.59524e-06
4.23223e-05
8.54257e-07
3.93002e-05
-7.8388e-06
3.58313e-05
-1.69071e-05
3.1615e-05
-2.29814e-05
2.94097e-05
-2.43294e-05
3.10215e-05
-2.54317e-05
3.28381e-05
-2.85489e-05
3.10485e-05
-3.70748e-05
2.83252e-05
-4.32239e-05
3.394e-05
-4.35924e-05
4.33896e-05
-4.3509e-05
5.14767e-05
-4.38374e-05
5.72313e-05
-4.09854e-05
6.0466e-05
-4.17278e-05
5.52059e-05
-6.92513e-05
4.30907e-05
-0.00013898
5.46042e-05
1.57233e-05
-0.000202844
1.12692e-06
6.64591e-05
5.55028e-06
4.65966e-05
7.81786e-06
4.99496e-05
7.26734e-06
4.79111e-05
5.7897e-06
4.59712e-05
3.71494e-06
4.4397e-05
-3.76799e-08
4.30527e-05
-5.28747e-06
4.1081e-05
-1.15938e-05
3.79212e-05
-1.73785e-05
3.51942e-05
-2.04138e-05
3.40568e-05
-2.11695e-05
3.35937e-05
-2.29809e-05
3.28599e-05
-2.71496e-05
3.24937e-05
-3.04828e-05
3.72732e-05
-3.10718e-05
4.39786e-05
-2.89239e-05
4.93286e-05
-2.34355e-05
5.17429e-05
-1.45245e-05
5.15552e-05
-6.8836e-06
4.75654e-05
-6.83121e-07
3.68903e-05
-1.50216e-05
6.89426e-05
8.41034e-05
-8.34015e-05
5.93313e-07
6.58659e-05
2.81666e-06
4.43733e-05
4.44837e-06
4.8318e-05
4.43293e-06
4.79265e-05
3.71039e-06
4.66938e-05
2.59386e-06
4.55136e-05
8.13259e-07
4.48334e-05
-1.92575e-06
4.382e-05
-5.81623e-06
4.18116e-05
-9.96394e-06
3.93419e-05
-1.30057e-05
3.70985e-05
-1.49231e-05
3.5511e-05
-1.7075e-05
3.50118e-05
-2.03478e-05
3.57665e-05
-2.24031e-05
3.93285e-05
-2.21025e-05
4.36781e-05
-1.87237e-05
4.59497e-05
-1.24314e-05
4.54507e-05
-4.32495e-06
4.34488e-05
3.80564e-06
3.94352e-05
1.26372e-05
2.8059e-05
2.20447e-05
5.95349e-05
0.000122944
-1.67961e-05
3.98655e-07
6.54673e-05
1.50752e-06
4.32646e-05
2.64755e-06
4.71781e-05
2.79853e-06
4.77756e-05
2.50713e-06
4.69853e-05
1.94896e-06
4.60719e-05
1.19268e-06
4.55897e-05
-3.65593e-08
4.50492e-05
-2.02571e-06
4.38006e-05
-4.49709e-06
4.18131e-05
-7.12099e-06
3.97222e-05
-9.80241e-06
3.81922e-05
-1.26461e-05
3.78554e-05
-1.55823e-05
3.87028e-05
-1.73036e-05
4.10499e-05
-1.69533e-05
4.33279e-05
-1.44121e-05
4.34086e-05
-1.01619e-05
4.12004e-05
-4.56733e-06
3.78541e-05
2.56438e-06
3.23036e-05
8.3457e-06
2.22779e-05
1.63388e-05
5.15418e-05
0.000127089
1.21946e-05
5.6445e-07
6.49029e-05
9.28235e-07
4.29009e-05
1.58374e-06
4.65226e-05
1.72286e-06
4.76365e-05
1.5697e-06
4.71385e-05
1.20718e-06
4.64345e-05
7.97377e-07
4.59995e-05
2.56478e-07
4.559e-05
-7.27282e-07
4.47842e-05
-2.3623e-06
4.3448e-05
-4.63995e-06
4.19997e-05
-7.40203e-06
4.09542e-05
-1.03016e-05
4.0755e-05
-1.29237e-05
4.1325e-05
-1.44317e-05
4.2558e-05
-1.45064e-05
4.34026e-05
-1.35436e-05
4.24458e-05
-1.19317e-05
3.95883e-05
-9.97422e-06
3.58964e-05
-8.00467e-06
3.03336e-05
-8.03413e-06
2.2307e-05
-8.28626e-06
5.1794e-05
0.000118467
3.3491e-07
7.48284e-07
6.41547e-05
6.9767e-07
4.29516e-05
9.67993e-07
4.62523e-05
1.01162e-06
4.75929e-05
8.28726e-07
4.73215e-05
4.90566e-07
4.67727e-05
1.01742e-07
4.63883e-05
-3.38377e-07
4.60301e-05
-1.08029e-06
4.55261e-05
-2.39646e-06
4.47641e-05
-4.34634e-06
4.39494e-05
-6.79001e-06
4.33979e-05
-9.37561e-06
4.33407e-05
-1.16809e-05
4.36305e-05
-1.32409e-05
4.41181e-05
-1.40348e-05
4.41965e-05
-1.44359e-05
4.28465e-05
-1.44704e-05
3.96227e-05
-1.4362e-05
3.5788e-05
-1.63382e-05
3.23096e-05
-2.48564e-05
3.08252e-05
-3.01682e-05
5.71056e-05
0.00010911
-2.08107e-05
7.80505e-07
6.33743e-05
6.06142e-07
4.31259e-05
6.18604e-07
4.62398e-05
5.39915e-07
4.76716e-05
3.19921e-07
4.75415e-05
-5.10456e-08
4.71436e-05
-5.21772e-07
4.68589e-05
-1.08868e-06
4.65969e-05
-1.87553e-06
4.63129e-05
-3.07265e-06
4.59611e-05
-4.75586e-06
4.56325e-05
-6.82259e-06
4.54647e-05
-9.02334e-06
4.55417e-05
-1.11378e-05
4.57452e-05
-1.2989e-05
4.59695e-05
-1.46962e-05
4.59038e-05
-1.65968e-05
4.47467e-05
-1.8791e-05
4.18167e-05
-2.1392e-05
3.83888e-05
-2.62579e-05
3.71751e-05
-3.7479e-05
4.20461e-05
-4.40721e-05
6.36985e-05
9.93406e-05
-3.43031e-05
6.86126e-07
6.26881e-05
5.46595e-07
4.32653e-05
4.05578e-07
4.63807e-05
2.45834e-07
4.78313e-05
4.80175e-09
4.77825e-05
-3.89248e-07
4.75376e-05
-9.13207e-07
4.73829e-05
-1.56952e-06
4.72531e-05
-2.4094e-06
4.71528e-05
-3.53451e-06
4.70861e-05
-4.98968e-06
4.70877e-05
-6.72456e-06
4.71996e-05
-8.63313e-06
4.74503e-05
-1.06761e-05
4.77882e-05
-1.28637e-05
4.81569e-05
-1.53659e-05
4.8406e-05
-1.87048e-05
4.80855e-05
-2.35378e-05
4.66494e-05
-2.9944e-05
4.47948e-05
-3.81216e-05
4.53527e-05
-4.85611e-05
5.24856e-05
-5.55894e-05
7.07268e-05
9.95088e-05
-5.57577e-05
5.72072e-07
6.21159e-05
4.65323e-07
4.33718e-05
2.57996e-07
4.65879e-05
6.63843e-08
4.80229e-05
-1.79417e-07
4.80283e-05
-5.56345e-07
4.79145e-05
-1.06165e-06
4.78882e-05
-1.7104e-06
4.79018e-05
-2.52525e-06
4.79676e-05
-3.54435e-06
4.81052e-05
-4.79133e-06
4.83346e-05
-6.2645e-06
4.86727e-05
-7.95248e-06
4.91383e-05
-9.89686e-06
4.97326e-05
-1.21854e-05
5.04454e-05
-1.50153e-05
5.12358e-05
-1.89279e-05
5.19982e-05
-2.48033e-05
5.25247e-05
-3.30544e-05
5.30462e-05
-4.32088e-05
5.55071e-05
-5.38987e-05
6.31754e-05
-6.29638e-05
7.97919e-05
0.000108098
-7.1553e-05
4.73891e-07
6.16419e-05
3.85391e-07
4.34601e-05
1.68611e-07
4.68046e-05
-2.18026e-08
4.82133e-05
-2.53856e-07
4.82603e-05
-5.885e-07
4.8249e-05
-1.03241e-06
4.83321e-05
-1.60462e-06
4.8474e-05
-2.32117e-06
4.86841e-05
-3.19841e-06
4.89825e-05
-4.25399e-06
4.93903e-05
-5.50862e-06
4.99273e-05
-6.98743e-06
5.0617e-05
-8.7455e-06
5.14905e-05
-1.088e-05
5.25798e-05
-1.35728e-05
5.39284e-05
-1.71983e-05
5.56238e-05
-2.24115e-05
5.77376e-05
-2.97761e-05
6.04107e-05
-3.88617e-05
6.45928e-05
-4.77732e-05
7.20869e-05
-5.32776e-05
8.52964e-05
0.000105789
-5.09682e-05
4.10301e-07
6.12314e-05
3.20846e-07
4.35493e-05
1.21891e-07
4.70035e-05
-3.81007e-08
4.83733e-05
-2.36317e-07
4.84586e-05
-5.15065e-07
4.85279e-05
-8.80369e-07
4.86973e-05
-1.34799e-06
4.89418e-05
-1.93288e-06
4.9269e-05
-2.64966e-06
4.96993e-05
-3.51537e-06
5.0256e-05
-4.55351e-06
5.09654e-05
-5.79582e-06
5.18593e-05
-7.28782e-06
5.29824e-05
-9.10366e-06
5.43957e-05
-1.13667e-05
5.61911e-05
-1.42596e-05
5.85168e-05
-1.8078e-05
6.1556e-05
-2.31715e-05
6.5504e-05
-2.93219e-05
7.07434e-05
-3.50014e-05
7.77664e-05
-3.68285e-05
8.71234e-05
9.8496e-05
-2.9536e-05
3.81215e-07
6.08501e-05
2.88476e-07
4.36419e-05
1.24674e-07
4.71673e-05
7.25828e-09
4.84907e-05
-1.42994e-07
4.86088e-05
-3.56067e-07
4.87411e-05
-6.35334e-07
4.89766e-05
-9.91062e-07
4.92975e-05
-1.43598e-06
4.9714e-05
-1.98311e-06
5.02465e-05
-2.64814e-06
5.0921e-05
-3.44861e-06
5.17659e-05
-4.40993e-06
5.28206e-05
-5.56245e-06
5.41348e-05
-6.94854e-06
5.57818e-05
-8.62621e-06
5.78687e-05
-1.06577e-05
6.05481e-05
-1.31031e-05
6.40014e-05
-1.60241e-05
6.84251e-05
-1.92834e-05
7.40028e-05
-2.21985e-05
8.06816e-05
-2.31253e-05
8.80501e-05
9.50943e-05
-1.97237e-05
3.77202e-07
6.04728e-05
2.86805e-07
4.37322e-05
1.68928e-07
4.72852e-05
1.03867e-07
4.8556e-05
1.18201e-08
4.8701e-05
-1.27511e-07
4.88805e-05
-3.14552e-07
4.91638e-05
-5.5499e-07
4.9538e-05
-8.56551e-07
5.00158e-05
-1.22873e-06
5.06186e-05
-1.68081e-06
5.13729e-05
-2.22297e-06
5.2308e-05
-2.86904e-06
5.34665e-05
-3.63203e-06
5.48979e-05
-4.5265e-06
5.6676e-05
-5.56314e-06
5.89053e-05
-6.74022e-06
6.17251e-05
-8.0273e-06
6.52882e-05
-9.34494e-06
6.97429e-05
-1.05545e-05
7.52123e-05
-1.15212e-05
8.16484e-05
-1.2167e-05
8.86959e-05
9.57862e-05
-1.28589e-05
3.89803e-07
6.00829e-05
3.09065e-07
4.38129e-05
2.46322e-07
4.73479e-05
2.38876e-07
4.85635e-05
2.13372e-07
4.87269e-05
1.55207e-07
4.89388e-05
6.51453e-08
4.92541e-05
-5.61377e-08
4.96594e-05
-2.1213e-07
5.0172e-05
-4.06295e-07
5.0813e-05
-6.42082e-07
5.16088e-05
-9.16632e-07
5.25825e-05
-1.23641e-06
5.3786e-05
-1.59755e-06
5.52592e-05
-1.99223e-06
5.70704e-05
-2.40034e-06
5.93132e-05
-2.78162e-06
6.21063e-05
-3.06973e-06
6.55762e-05
-3.16552e-06
6.98389e-05
-2.92807e-06
7.49749e-05
-2.31288e-06
8.10332e-05
-1.64089e-06
8.80239e-05
9.61035e-05
-1.95797e-06
4.14822e-07
5.9668e-05
3.52341e-07
4.38753e-05
3.47998e-07
4.73524e-05
4.03179e-07
4.85084e-05
4.46992e-07
4.86833e-05
4.73243e-07
4.89128e-05
4.86077e-07
4.92415e-05
4.84979e-07
4.96608e-05
4.75544e-07
5.01816e-05
4.61327e-07
5.08273e-05
4.47846e-07
5.16224e-05
4.26198e-07
5.26041e-05
4.20284e-07
5.37918e-05
4.44771e-07
5.52347e-05
5.24281e-07
5.69908e-05
7.02775e-07
5.91346e-05
1.03574e-06
6.17731e-05
1.61099e-06
6.50009e-05
2.5484e-06
6.89016e-05
3.99239e-06
7.35309e-05
6.09661e-06
7.89291e-05
8.86217e-06
8.52583e-05
9.29217e-05
1.20441e-05
4.50334e-07
5.92177e-05
4.10998e-07
4.39146e-05
4.657e-07
4.72978e-05
5.8403e-07
4.83903e-05
6.99185e-07
4.85683e-05
8.09152e-07
4.88033e-05
9.20364e-07
4.91305e-05
1.03933e-06
4.95422e-05
1.17069e-06
5.00503e-05
1.32219e-06
5.06758e-05
1.50297e-06
5.14417e-05
1.73102e-06
5.23758e-05
2.01895e-06
5.35039e-05
2.39596e-06
5.48575e-05
2.89819e-06
5.64884e-05
3.57707e-06
5.84555e-05
4.52272e-06
6.08272e-05
5.83016e-06
6.36935e-05
7.62643e-06
6.71053e-05
1.01006e-05
7.10567e-05
1.3448e-05
7.55818e-05
1.80249e-05
8.06815e-05
8.65278e-05
2.44189e-05
4.91214e-07
5.87265e-05
4.80556e-07
4.39253e-05
5.93765e-07
4.71846e-05
7.72057e-07
4.82124e-05
9.59392e-07
4.83812e-05
1.15119e-06
4.86118e-05
1.35895e-06
4.89229e-05
1.58994e-06
4.93114e-05
1.85252e-06
4.97878e-05
2.15939e-06
5.0369e-05
2.5256e-06
5.10756e-05
2.97093e-06
5.19302e-05
3.52046e-06
5.29544e-05
4.19968e-06
5.41782e-05
5.05899e-06
5.56289e-05
6.1616e-06
5.73529e-05
7.5926e-06
5.93961e-05
9.46595e-06
6.18201e-05
1.19237e-05
6.46475e-05
1.51175e-05
6.7863e-05
1.93147e-05
7.13847e-05
2.48982e-05
7.5098e-05
7.89132e-05
3.2513e-05
5.32366e-07
5.8194e-05
5.56539e-07
4.39013e-05
7.29082e-07
4.70121e-05
9.69973e-07
4.79716e-05
1.22143e-06
4.81299e-05
1.49105e-06
4.83424e-05
1.78572e-06
4.86285e-05
2.11773e-06
4.89795e-05
2.49917e-06
4.94062e-05
2.94627e-06
4.9922e-05
3.47494e-06
5.05468e-05
4.10657e-06
5.12984e-05
4.87121e-06
5.21897e-05
5.80748e-06
5.32419e-05
6.95909e-06
5.44771e-05
8.39784e-06
5.59141e-05
1.01989e-05
5.7595e-05
1.24685e-05
5.95505e-05
1.53507e-05
6.17652e-05
1.9003e-05
6.42107e-05
2.36282e-05
6.67598e-05
2.94953e-05
6.9231e-05
7.14093e-05
3.69993e-05
5.72112e-07
5.76219e-05
6.39992e-07
4.38333e-05
8.70231e-07
4.6782e-05
1.1646e-06
4.76771e-05
1.47646e-06
4.78182e-05
1.81327e-06
4.80056e-05
2.18691e-06
4.8255e-05
2.61038e-06
4.85559e-05
3.09656e-06
4.892e-05
3.66024e-06
4.93584e-05
4.32388e-06
4.98831e-05
5.11464e-06
5.05076e-05
6.05794e-06
5.12463e-05
7.18722e-06
5.21125e-05
8.56203e-06
5.31021e-05
1.02308e-05
5.42452e-05
1.22873e-05
5.55385e-05
1.48279e-05
5.70099e-05
1.796e-05
5.86331e-05
2.18202e-05
6.03507e-05
2.65553e-05
6.20248e-05
3.23333e-05
6.3453e-05
6.43891e-05
3.93534e-05
6.11353e-07
5.70107e-05
7.27862e-07
4.37168e-05
1.01652e-06
4.64936e-05
1.35574e-06
4.73378e-05
1.72345e-06
4.74506e-05
2.12072e-06
4.76083e-05
2.56257e-06
4.78133e-05
3.05959e-06
4.80587e-05
3.62895e-06
4.83506e-05
4.28769e-06
4.86996e-05
5.05752e-06
4.9113e-05
5.96278e-06
4.96023e-05
7.03637e-06
5.01726e-05
8.3182e-06
5.08306e-05
9.84343e-06
5.15768e-05
1.16814e-05
5.24073e-05
1.3893e-05
5.33269e-05
1.65725e-05
5.43304e-05
1.9808e-05
5.53978e-05
2.37016e-05
5.64572e-05
2.83512e-05
5.73754e-05
3.38514e-05
5.79529e-05
5.79587e-05
4.02818e-05
6.53246e-07
5.63574e-05
8.17917e-07
4.35523e-05
1.16006e-06
4.61513e-05
1.54529e-06
4.69526e-05
1.95982e-06
4.7036e-05
2.4074e-06
4.71608e-05
2.90481e-06
4.73158e-05
3.46171e-06
4.75016e-05
4.09545e-06
4.77168e-05
4.82516e-06
4.79698e-05
5.67172e-06
4.82663e-05
6.66238e-06
4.86115e-05
7.82381e-06
4.90111e-05
9.19558e-06
4.94587e-05
1.08191e-05
4.99533e-05
1.27438e-05
5.04826e-05
1.50303e-05
5.10403e-05
1.7751e-05
5.16098e-05
2.09775e-05
5.21715e-05
2.47814e-05
5.26535e-05
2.92254e-05
5.29319e-05
3.43574e-05
5.2821e-05
5.21276e-05
4.01886e-05
7.0244e-07
5.56549e-05
9.07974e-07
4.33469e-05
1.29967e-06
4.57595e-05
1.72193e-06
4.65303e-05
2.1773e-06
4.65805e-05
2.66737e-06
4.66707e-05
3.20852e-06
4.67745e-05
3.81271e-06
4.68973e-05
4.49511e-06
4.70344e-05
5.2737e-06
4.71911e-05
6.17089e-06
4.7369e-05
7.21116e-06
4.75711e-05
8.42574e-06
4.77965e-05
9.84562e-06
4.80388e-05
1.15078e-05
4.82911e-05
1.34572e-05
4.85333e-05
1.57427e-05
4.8755e-05
1.8422e-05
4.89306e-05
2.15536e-05
4.90402e-05
2.51877e-05
4.90196e-05
2.93626e-05
4.87573e-05
3.40969e-05
4.80866e-05
4.68499e-05
3.93748e-05
7.63852e-07
5.48912e-05
9.95328e-07
4.31154e-05
1.42586e-06
4.5329e-05
1.88018e-06
4.60759e-05
2.36948e-06
4.60911e-05
2.89429e-06
4.61459e-05
3.47192e-06
4.61967e-05
4.11227e-06
4.6257e-05
4.82947e-06
4.63172e-05
5.64135e-06
4.6379e-05
6.56772e-06
4.64424e-05
7.63324e-06
4.65055e-05
8.86528e-06
4.65644e-05
1.0292e-05
4.6612e-05
1.195e-05
4.66332e-05
1.38707e-05
4.66126e-05
1.60983e-05
4.65275e-05
1.86744e-05
4.63546e-05
2.16502e-05
4.60645e-05
2.50588e-05
4.56112e-05
2.89272e-05
4.48889e-05
3.32608e-05
4.37532e-05
4.20663e-05
3.80446e-05
8.37089e-07
5.40542e-05
1.07642e-06
4.2876e-05
1.53103e-06
4.48744e-05
2.01029e-06
4.55966e-05
2.52603e-06
4.55752e-05
3.07921e-06
4.55926e-05
3.68439e-06
4.55914e-05
4.35163e-06
4.55897e-05
5.09421e-06
4.55746e-05
5.92784e-06
4.55452e-05
6.87102e-06
4.54992e-05
7.94458e-06
4.54318e-05
9.17175e-06
4.53372e-05
1.05797e-05
4.52041e-05
1.21965e-05
4.50164e-05
1.40529e-05
4.47562e-05
1.61833e-05
4.43971e-05
1.86206e-05
4.39174e-05
2.14006e-05
4.32846e-05
2.45542e-05
4.24578e-05
2.80995e-05
4.13438e-05
3.20411e-05
3.98117e-05
3.77358e-05
3.63719e-05
9.1649e-07
5.31377e-05
1.14568e-06
4.26468e-05
1.60628e-06
4.44137e-05
2.1009e-06
4.5102e-05
2.63368e-06
4.50423e-05
3.20425e-06
4.50218e-05
3.82797e-06
4.49675e-05
4.5135e-06
4.49042e-05
5.27239e-06
4.48156e-05
6.11902e-06
4.46985e-05
7.06849e-06
4.45496e-05
8.13967e-06
4.43606e-05
9.35241e-06
4.41244e-05
1.07289e-05
4.38275e-05
1.2293e-05
4.34523e-05
1.40689e-05
4.29804e-05
1.60842e-05
4.23819e-05
1.8366e-05
4.16356e-05
2.0941e-05
4.07097e-05
2.38371e-05
3.95617e-05
2.70679e-05
3.8113e-05
3.06364e-05
3.62431e-05
3.38259e-05
3.45464e-05
9.96588e-07
5.2141e-05
1.19675e-06
4.24465e-05
1.64168e-06
4.39686e-05
2.13906e-06
4.46045e-05
2.67525e-06
4.45061e-05
3.24967e-06
4.44473e-05
3.87854e-06
4.43387e-05
4.56856e-06
4.42142e-05
5.33185e-06
4.40522e-05
6.18112e-06
4.38491e-05
7.1287e-06
4.36019e-05
8.19002e-06
4.32992e-05
9.38054e-06
4.29339e-05
1.0721e-05
4.2487e-05
1.22279e-05
4.19453e-05
1.39243e-05
4.12841e-05
1.58286e-05
4.04776e-05
1.7962e-05
3.95021e-05
2.03486e-05
3.83231e-05
2.30093e-05
3.69008e-05
2.59572e-05
3.5165e-05
2.91953e-05
3.30049e-05
3.02985e-05
3.27227e-05
1.07221e-06
5.10687e-05
1.22334e-06
4.22952e-05
1.62944e-06
4.35625e-05
2.1127e-06
4.41212e-05
2.63308e-06
4.39857e-05
3.19288e-06
4.38876e-05
3.80731e-06
4.37243e-05
4.48299e-06
4.35385e-05
5.23259e-06
4.33026e-05
6.06562e-06
4.30161e-05
6.99427e-06
4.26732e-05
8.03094e-06
4.22625e-05
9.18926e-06
4.17756e-05
1.04832e-05
4.11931e-05
1.193e-05
4.04986e-05
1.3545e-05
3.96692e-05
1.53449e-05
3.86779e-05
1.73464e-05
3.75005e-05
1.95664e-05
3.6103e-05
2.20254e-05
3.44416e-05
2.47343e-05
3.24559e-05
2.76913e-05
3.00479e-05
2.71017e-05
3.08881e-05
1.13681e-06
4.99318e-05
1.22051e-06
4.22114e-05
1.56429e-06
4.32187e-05
2.01363e-06
4.36718e-05
2.49654e-06
4.3503e-05
3.0189e-06
4.33654e-05
3.59516e-06
4.31481e-05
4.23211e-06
4.29015e-05
4.94198e-06
4.25928e-05
5.73272e-06
4.22254e-05
6.61547e-06
4.17905e-05
7.60114e-06
4.12769e-05
8.70163e-06
4.06752e-05
9.92828e-06
3.99666e-05
1.12942e-05
3.91329e-05
1.28141e-05
3.81495e-05
1.44985e-05
3.69937e-05
1.63634e-05
3.56355e-05
1.84223e-05
3.40439e-05
2.06907e-05
3.2173e-05
2.31785e-05
2.99679e-05
2.58801e-05
2.73462e-05
2.42058e-05
2.87757e-05
1.178e-06
4.87537e-05
1.18597e-06
4.22035e-05
1.44931e-06
4.29553e-05
1.84433e-06
4.32768e-05
2.26647e-06
4.3081e-05
2.72987e-06
4.29021e-05
3.24449e-06
4.26336e-05
3.81726e-06
4.23288e-05
4.4587e-06
4.19514e-05
5.17758e-06
4.15066e-05
5.98298e-06
4.09851e-05
6.88325e-06
4.03767e-05
7.88895e-06
3.96695e-05
9.00951e-06
3.88461e-05
1.02574e-05
3.78852e-05
1.16433e-05
3.67637e-05
1.3178e-05
3.5459e-05
1.48715e-05
3.3942e-05
1.67368e-05
3.21784e-05
1.8783e-05
3.01265e-05
2.10169e-05
2.77337e-05
2.34272e-05
2.49356e-05
2.16429e-05
2.599e-05
1.18746e-06
4.75663e-05
1.1186e-06
4.22724e-05
1.2922e-06
4.27817e-05
1.61888e-06
4.29503e-05
1.96173e-06
4.27383e-05
2.35068e-06
4.25132e-05
2.78407e-06
4.22002e-05
3.27203e-06
4.18408e-05
3.82303e-06
4.14003e-05
4.44293e-06
4.08866e-05
5.13941e-06
4.02885e-05
5.92017e-06
3.95958e-05
6.79334e-06
3.87964e-05
7.76803e-06
3.78715e-05
8.85444e-06
3.67989e-05
1.00603e-05
3.55579e-05
1.13942e-05
3.4125e-05
1.28642e-05
3.24718e-05
1.44773e-05
3.05651e-05
1.62381e-05
2.83655e-05
1.81455e-05
2.58262e-05
2.01829e-05
2.28981e-05
1.95048e-05
2.23208e-05
1.15504e-06
4.64113e-05
1.02261e-06
4.24048e-05
1.10786e-06
4.26965e-05
1.3589e-06
4.26994e-05
1.61461e-06
4.24827e-05
1.9228e-06
4.2205e-05
2.26588e-06
4.18571e-05
2.65899e-06
4.14475e-05
3.10445e-06
4.09547e-05