/*--------------------------------*- C++ -*----------------------------------*\
| =========                 |                                                 |
| \\      /  F ield         | OpenFOAM: The Open Source CFD Toolbox           |
|  \\    /   O peration     | Version:  2206                                  |
|   \\  /    A nd           | Website:  www.openfoam.com                      |
|    \\/     M anipulation  |                                                 |
\*---------------------------------------------------------------------------*/
FoamFile
{
    version     2.0;
    format      ascii;
    arch        "LSB;label=32;scalar=64";
    class       volVectorField;
    location    "0.675";
    object      U;
}
// * * * * * * * * * * * * * * * * * * * * * * * * * * * * * * * * * * * * * //

dimensions      [0 1 -1 0 0 0 0];

internalField   nonuniform List<vector> 
2268
(
(-0.0209817 0.00936176 0)
(-0.0649051 0.0105021 0)
(-0.0997015 0.00646956 0)
(-0.116441 0.00334461 0)
(-0.125024 0.000269683 0)
(-0.117135 -0.00371121 0)
(-0.0921138 -0.00724141 0)
(-0.0573421 -0.00764074 0)
(-0.028175 -0.00505391 0)
(-0.0132762 -0.00150118 0)
(-0.0125512 0.00198404 0)
(-0.0246788 0.00466704 0)
(-0.0443365 0.00640579 0)
(-0.0684676 0.00780463 0)
(-0.097182 0.00987925 0)
(-0.133677 0.00992758 0)
(-0.170005 0.00365799 0)
(-0.188298 0.00112517 0)
(-0.224872 0.015096 0)
(-0.316538 0.0218212 0)
(-0.349885 -0.000705155 0)
(-0.242432 -0.0397194 0)
(-0.0854868 -0.0501923 0)
(-0.0333702 0.0310843 0)
(-0.0740727 0.0276111 0)
(-0.0979789 0.015887 0)
(-0.113043 0.00936724 0)
(-0.12452 0.00171443 0)
(-0.120858 -0.0103587 0)
(-0.0967883 -0.0222806 0)
(-0.0599652 -0.0241861 0)
(-0.0282817 -0.0162943 0)
(-0.0119678 -0.00560254 0)
(-0.00981333 0.00329054 0)
(-0.0154707 0.00970737 0)
(-0.0262713 0.0139278 0)
(-0.0406525 0.0171502 0)
(-0.058965 0.0218845 0)
(-0.0852151 0.0269154 0)
(-0.126245 0.02698 0)
(-0.179431 0.0269331 0)
(-0.251864 0.0382961 0)
(-0.310612 0.0318844 0)
(-0.271919 -0.0214444 0)
(-0.177151 -0.100406 0)
(-0.0597429 -0.127184 0)
(-0.0301827 0.0532104 0)
(-0.0566672 0.0419104 0)
(-0.0803411 0.0244284 0)
(-0.101646 0.0174628 0)
(-0.120944 0.00606823 0)
(-0.12121 -0.0158291 0)
(-0.0994835 -0.0381944 0)
(-0.0649882 -0.0422005 0)
(-0.0333959 -0.0283488 0)
(-0.0165695 -0.00981596 0)
(-0.0151637 0.00422978 0)
(-0.0227144 0.0132429 0)
(-0.0332526 0.0186244 0)
(-0.0431891 0.0224363 0)
(-0.0508172 0.0279547 0)
(-0.056056 0.0361675 0)
(-0.0656637 0.0450719 0)
(-0.0888014 0.0534249 0)
(-0.128588 0.0579919 0)
(-0.161944 0.0309567 0)
(-0.138417 -0.0449654 0)
(-0.0834582 -0.132489 0)
(-0.0176143 -0.169844 0)
(-0.020833 0.0695284 0)
(-0.0326604 0.0540722 0)
(-0.0545622 0.0341789 0)
(-0.0765793 0.0277458 0)
(-0.0941967 0.0123938 0)
(-0.0908416 -0.0206171 0)
(-0.0740051 -0.052137 0)
(-0.0541761 -0.0576597 0)
(-0.0351169 -0.0390252 0)
(-0.0233408 -0.0134887 0)
(-0.0233225 0.00612977 0)
(-0.0320745 0.0178704 0)
(-0.0438123 0.0236834 0)
(-0.053917 0.0264319 0)
(-0.0600919 0.0299298 0)
(-0.0599898 0.0361046 0)
(-0.0519011 0.0459878 0)
(-0.0367844 0.058795 0)
(-0.026092 0.0649837 0)
(-0.00836723 0.0381028 0)
(0.00573952 -0.0417501 0)
(0.00651579 -0.134985 0)
(0.0198491 -0.173917 0)
(-0.00808484 0.0784309 0)
(-0.000940936 0.0598595 0)
(-0.0130537 0.0433926 0)
(-0.0253265 0.0362782 0)
(-0.0282418 0.0153663 0)
(-0.0142989 -0.0245408 0)
(-0.00695627 -0.0569406 0)
(-0.0143773 -0.0615384 0)
(-0.023499 -0.0417063 0)
(-0.0283482 -0.0138308 0)
(-0.0337062 0.00899661 0)
(-0.0431758 0.0228758 0)
(-0.0545445 0.0290134 0)
(-0.0634632 0.0302573 0)
(-0.0683423 0.0313956 0)
(-0.0683382 0.033628 0)
(-0.0598675 0.0378769 0)
(-0.0345436 0.0455259 0)
(0.00247228 0.0484078 0)
(0.0499217 0.0245604 0)
(0.0745283 -0.0424275 0)
(0.0503264 -0.128572 0)
(0.0415889 -0.157143 0)
(0.00638829 0.0739157 0)
(0.0363899 0.05695 0)
(0.0461371 0.0412848 0)
(0.0519522 0.0314451 0)
(0.0730683 0.00705426 0)
(0.0956296 -0.0265402 0)
(0.0854259 -0.0499783 0)
(0.0448488 -0.0502684 0)
(0.00192059 -0.031444 0)
(-0.0272915 -0.00701676 0)
(-0.0439349 0.0142302 0)
(-0.0558261 0.0277294 0)
(-0.066462 0.0329627 0)
(-0.0731279 0.0323815 0)
(-0.0751306 0.0318599 0)
(-0.0737294 0.031659 0)
(-0.0668411 0.0307574 0)
(-0.0478653 0.0298065 0)
(-0.0140713 0.0228196 0)
(0.0303873 -0.000743729 0)
(0.067123 -0.0472983 0)
(0.0410751 -0.119211 0)
(0.0469776 -0.140002 0)
(0.0181529 0.0604189 0)
(0.0679458 0.0534301 0)
(0.11271 0.0426712 0)
(0.157812 0.0283233 0)
(0.200166 0.00281355 0)
(0.207815 -0.0201993 0)
(0.162918 -0.0310303 0)
(0.0909054 -0.0262282 0)
(0.0262076 -0.0102172 0)
(-0.0206657 0.00686698 0)
(-0.0507673 0.022925 0)
(-0.0684881 0.0345366 0)
(-0.0795919 0.0384244 0)
(-0.0835303 0.0351018 0)
(-0.0817467 0.0321343 0)
(-0.0778962 0.0294007 0)
(-0.0705191 0.0249874 0)
(-0.0558771 0.0185978 0)
(-0.0322606 0.00577086 0)
(-0.00670267 -0.0189636 0)
(0.0280403 -0.0548508 0)
(0.0114085 -0.117428 0)
(0.0358802 -0.128843 0)
(0.028718 0.0216652 0)
(0.133135 0.00306643 0)
(0.215245 -0.00735952 0)
(0.266813 -0.0130336 0)
(0.279924 -0.0142951 0)
(0.244636 -0.00770142 0)
(0.166405 0.00351061 0)
(0.084899 0.0131764 0)
(0.026113 0.0242921 0)
(-0.0156199 0.0312998 0)
(-0.0491891 0.0370324 0)
(-0.0745734 0.0401931 0)
(-0.0908145 0.0379523 0)
(-0.094953 0.0310802 0)
(-0.090316 0.028449 0)
(-0.0840131 0.0266536 0)
(-0.0751023 0.0216582 0)
(-0.0606079 0.0125224 0)
(-0.0410969 -0.00177252 0)
(-0.0270085 -0.0277031 0)
(-0.00842463 -0.0577506 0)
(-0.0161893 -0.116136 0)
(-0.00873949 -0.126269 0)
(0.271833 -0.279905 0)
(0.698309 -0.114461 0)
(0.447429 0.0140137 0)
(-0.244913 0.23313 0)
(-1.00885 0.285147 0)
(-1.58614 0.204954 0)
(-1.90222 0.0994467 0)
(-2.01193 0.0273413 0)
(-1.99693 -0.00722465 0)
(-1.93955 -0.0167688 0)
(-1.85349 -0.0249479 0)
(-1.72295 -0.036641 0)
(-1.56972 -0.034368 0)
(-1.43075 -0.0244947 0)
(-1.27794 -0.0311502 0)
(-1.05131 -0.0656697 0)
(-0.726778 -0.1275 0)
(-0.315428 -0.148156 0)
(0.245265 0.0237931 0)
(0.114409 -0.539466 0)
(0.0706673 0.139069 0)
(-0.651485 0.433974 0)
(-1.36525 0.530329 0)
(-1.98365 0.399548 0)
(-2.22184 0.192667 0)
(-2.225 0.0594582 0)
(-2.15595 -0.0113924 0)
(-2.10451 -0.0450497 0)
(-2.03792 -0.0633443 0)
(-1.93403 -0.0842724 0)
(-1.79348 -0.11424 0)
(-1.66057 -0.127333 0)
(-1.5591 -0.127018 0)
(-1.45297 -0.150683 0)
(-1.25597 -0.21423 0)
(-0.961774 -0.318785 0)
(-0.566626 -0.339214 0)
(-0.108586 -0.0458674 0)
(-0.304208 -0.216009 0)
(-0.760558 0.475818 0)
(-1.43569 0.751314 0)
(-2.03974 0.752281 0)
(-2.48982 0.570222 0)
(-2.7459 0.319649 0)
(-2.89248 0.11457 0)
(-2.6878 -0.0182868 0)
(-2.32195 -0.0871993 0)
(-1.99195 -0.113654 0)
(-1.55247 -0.13002 0)
(-1.03128 -0.175102 0)
(-1.00184 -0.140957 0)
(-0.992294 -0.135167 0)
(-1.1143 -0.23384 0)
(-1.16872 -0.374008 0)
(-1.0191 -0.550126 0)
(-0.67934 -0.615868 0)
(-0.259626 -0.287079 0)
(-0.548503 0.0701899 0)
(-1.14216 0.764967 0)
(-1.77767 1.04154 0)
(-2.31067 1.04431 0)
(-2.76704 0.905207 0)
(-3.1343 0.538141 0)
(-2.85148 0.0481014 0)
(-1.97634 -0.344697 0)
(-1.44852 -0.400741 0)
(-1.15192 -0.406682 0)
(-0.523683 -0.439767 0)
(0.554607 -0.539046 0)
(0.663325 -0.387756 0)
(0.953367 -0.0406707 0)
(1.37627 0.199157 0)
(-0.0581221 -0.016005 0)
(-0.783576 -0.568268 0)
(-0.636615 -0.868525 0)
(-0.265502 -0.552074 0)
(-0.602312 0.525325 0)
(-1.26214 1.08126 0)
(-1.84887 1.34608 0)
(-2.39086 1.36641 0)
(-2.79243 1.14537 0)
(-2.57195 0.425399 0)
(-1.28561 -0.45662 0)
(-0.665807 -0.734469 0)
(-0.170845 -0.615945 0)
(0.299885 -0.592626 0)
(0.700467 -0.731421 0)
(0.959988 -0.679439 0)
(0.986193 -0.525976 0)
(0.984033 -0.374979 0)
(1.30626 0.0501953 0)
(1.5209 0.685876 0)
(-0.0508547 -0.0345461 0)
(-0.504944 -0.945381 0)
(-0.171695 -0.799796 0)
(-0.535464 0.923891 0)
(-1.13406 1.37046 0)
(-1.59922 1.66474 0)
(-2.07888 1.59652 0)
(-2.08241 1.01611 0)
(-0.96822 -0.162286 0)
(0.117884 -0.956941 0)
(0.352745 -1.02973 0)
(0.683211 -0.920697 0)
(1.11661 -0.839237 0)
(1.26801 -0.789302 0)
(1.20037 -0.677038 0)
(1.13245 -0.488075 0)
(1.0893 -0.357995 0)
(1.10764 -0.144398 0)
(1.61088 0.583783 0)
(1.18251 0.911619 0)
(-0.307527 -0.723736 0)
(-0.0652528 -0.990652 0)
(-0.448388 1.27789 0)
(-0.853902 1.55714 0)
(-0.893451 1.96032 0)
(-1.26082 1.59753 0)
(-0.942201 0.591939 0)
(0.68871 -0.73502 0)
(0.952403 -1.20427 0)
(1.00981 -1.20307 0)
(1.17238 -1.0793 0)
(1.31467 -0.885486 0)
(1.29025 -0.755211 0)
(1.21596 -0.635069 0)
(1.1698 -0.462671 0)
(1.14697 -0.316617 0)
(1.10023 -0.183942 0)
(1.31992 0.336757 0)
(1.55063 1.18642 0)
(-0.0635525 -0.269198 0)
(-0.00117406 -1.08862 0)
(-0.20646 1.57522 0)
(-0.482763 1.56644 0)
(-0.153009 1.99317 0)
(-0.0920488 1.55877 0)
(0.613757 0.243689 0)
(1.37936 -1.0209 0)
(1.3339 -1.28154 0)
(1.23574 -1.24876 0)
(1.24861 -1.07828 0)
(1.24191 -0.866047 0)
(1.21573 -0.736549 0)
(1.19432 -0.617892 0)
(1.16405 -0.456138 0)
(1.14019 -0.29542 0)
(1.09671 -0.186257 0)
(1.14573 0.217518 0)
(1.57736 1.38084 0)
(0.152599 0.289469 0)
(0.0360916 -1.08945 0)
(0.0513594 -0.0381816 0)
(0.0831304 -0.0669269 0)
(0.0753282 -0.0383646 0)
(0.0416923 -0.0042129 0)
(0.0176909 0.0279753 0)
(0.000476651 0.0494747 0)
(-0.0139543 0.0450266 0)
(-0.023994 0.0334209 0)
(-0.0331356 0.0342611 0)
(-0.042153 0.0413103 0)
(-0.0551326 0.0558355 0)
(-0.0746298 0.0656118 0)
(-0.0946522 0.059972 0)
(-0.0979566 0.0387563 0)
(-0.0907857 0.0274017 0)
(-0.0865354 0.0175755 0)
(-0.0814116 0.00738592 0)
(-0.0704091 -0.00390418 0)
(-0.0553077 -0.0151662 0)
(-0.0444228 -0.0339113 0)
(-0.0423487 -0.0567198 0)
(-0.0516814 -0.100436 0)
(-0.113156 -0.0877248 0)
(-0.37565 0.0115952 0)
(-0.774737 0.0715123 0)
(-0.611746 0.0620037 0)
(-0.473021 0.035107 0)
(-0.350532 0.0171338 0)
(-0.298334 0.0128765 0)
(-0.29017 0.0234542 0)
(-0.276741 0.0369456 0)
(-0.23928 0.0431721 0)
(-0.19025 0.0458082 0)
(-0.142086 0.054552 0)
(-0.111919 0.0635593 0)
(-0.0927685 0.0517057 0)
(-0.0707275 0.0236524 0)
(-0.0652157 0.0216284 0)
(-0.0736668 0.0236275 0)
(-0.0834758 0.0134278 0)
(-0.0757529 -0.0117312 0)
(-0.060802 -0.0272466 0)
(-0.0542951 -0.0411225 0)
(-0.0542387 -0.0548358 0)
(-0.0663205 -0.0751941 0)
(-0.0919507 -0.0615069 0)
(-0.0865449 0.584222 0)
(-0.425274 0.237707 0)
(-0.403928 -0.219852 0)
(-0.644153 -0.250057 0)
(-0.818295 -0.111435 0)
(-0.971891 -0.0122704 0)
(-1.06268 0.0176623 0)
(-1.02501 -0.0181376 0)
(-0.871922 -0.0504069 0)
(-0.686451 -0.04614 0)
(-0.512024 -0.00523496 0)
(-0.393331 0.0220209 0)
(-0.329031 0.0174382 0)
(-0.264233 0.0122953 0)
(-0.165629 0.0275485 0)
(-0.103697 0.033604 0)
(-0.069764 0.015777 0)
(-0.0350177 -0.0219589 0)
(-0.025095 -0.0316517 0)
(-0.0359068 -0.0320457 0)
(-0.0404398 -0.0433924 0)
(-0.0397438 -0.0618408 0)
(-0.0538932 -0.0618297 0)
(0.104387 0.717361 0)
(-0.0346123 0.528635 0)
(-0.0944414 0.233577 0)
(-0.290425 0.245868 0)
(-0.425929 0.217244 0)
(-0.516189 0.160207 0)
(-0.537336 0.0640789 0)
(-0.544591 -0.0659896 0)
(-0.640967 -0.202893 0)
(-0.792249 -0.2891 0)
(-0.920702 -0.221052 0)
(-0.979382 -0.117834 0)
(-0.982448 -0.121932 0)
(-0.867391 -0.163756 0)
(-0.635429 -0.145073 0)
(-0.47046 -0.0776389 0)
(-0.39037 -0.0564589 0)
(-0.329594 -0.0486721 0)
(-0.258208 -0.0294998 0)
(-0.212643 -0.0277257 0)
(-0.170201 -0.0509705 0)
(-0.10553 -0.0660348 0)
(-0.0940016 -0.0574646 0)
(0.073034 0.520228 0)
(0.15187 0.57774 0)
(0.0808302 0.29941 0)
(-0.00109697 0.117184 0)
(0.00203393 0.14998 0)
(-0.0375057 0.199555 0)
(-0.0361482 0.104428 0)
(-0.0262502 0.0420026 0)
(-0.0650042 0.0996073 0)
(-0.167951 0.177978 0)
(-0.363124 0.106794 0)
(-0.477913 0.011063 0)
(-0.582028 -0.0324099 0)
(-0.722346 -0.133396 0)
(-0.961494 -0.320467 0)
(-1.22614 -0.17253 0)
(-1.39588 -0.0905978 0)
(-1.51826 -0.160568 0)
(-1.49742 -0.203136 0)
(-1.25988 -0.191584 0)
(-0.945792 -0.197277 0)
(-0.74624 -0.113353 0)
(-0.603766 -0.0262776 0)
(-0.0183276 0.395568 0)
(0.143929 0.47061 0)
(0.157059 0.325581 0)
(0.141789 0.198066 0)
(0.0966831 0.184549 0)
(0.0905209 0.190257 0)
(0.069886 0.101464 0)
(-0.00543847 0.0120564 0)
(-0.0733283 -0.0170118 0)
(-0.068126 0.0582067 0)
(-0.0792579 0.145703 0)
(-0.133323 0.0897256 0)
(-0.205131 0.106981 0)
(-0.249152 0.132474 0)
(-0.351703 0.200526 0)
(-0.537252 0.242796 0)
(-0.687499 0.184007 0)
(-0.902028 0.0275863 0)
(-1.24682 -0.170857 0)
(-1.61153 -0.333432 0)
(-1.86605 -0.467704 0)
(-1.8462 -0.328304 0)
(-1.53804 -0.147722 0)
(-0.0411028 0.377 0)
(0.0756242 0.358362 0)
(0.133981 0.310823 0)
(0.137855 0.238011 0)
(0.0784217 0.217268 0)
(0.0707738 0.205746 0)
(0.0552234 0.159981 0)
(-0.00218794 0.126691 0)
(-0.0709098 0.113291 0)
(-0.121398 0.125492 0)
(-0.110402 0.158097 0)
(-0.142494 0.154567 0)
(-0.203193 0.10723 0)
(-0.24628 0.0331369 0)
(-0.275777 0.0914019 0)
(-0.284482 0.214386 0)
(-0.298679 0.282502 0)
(-0.366853 0.340232 0)
(-0.518153 0.399098 0)
(-0.698584 0.258335 0)
(-1.10371 -0.210708 0)
(-1.68611 -0.490767 0)
(-1.74703 -0.485839 0)
(-0.0211611 0.369747 0)
(0.0356616 0.293946 0)
(0.0776769 0.289174 0)
(0.0833391 0.248642 0)
(0.0522187 0.230444 0)
(0.0438366 0.220644 0)
(0.0250644 0.199338 0)
(-0.0154703 0.174549 0)
(-0.0668691 0.145762 0)
(-0.115279 0.137764 0)
(-0.129164 0.159281 0)
(-0.132163 0.17999 0)
(-0.141809 0.175653 0)
(-0.16793 0.159732 0)
(-0.222233 0.187289 0)
(-0.237894 0.237211 0)
(-0.232533 0.27856 0)
(-0.232794 0.309179 0)
(-0.236134 0.340774 0)
(-0.222918 0.338827 0)
(-0.208169 0.302738 0)
(-0.550121 0.26835 0)
(-1.0921 -0.13586 0)
(-0.0060911 0.360776 0)
(0.0184371 0.260217 0)
(0.0386487 0.27436 0)
(0.0448899 0.256882 0)
(0.0330892 0.244283 0)
(0.0270376 0.233845 0)
(0.0118427 0.223185 0)
(-0.0120832 0.208219 0)
(-0.0445667 0.187575 0)
(-0.0799949 0.174027 0)
(-0.105847 0.174314 0)
(-0.113829 0.176004 0)
(-0.113873 0.168696 0)
(-0.130041 0.15865 0)
(-0.15698 0.188802 0)
(-0.169237 0.234757 0)
(-0.16527 0.274333 0)
(-0.143148 0.299016 0)
(-0.10479 0.304738 0)
(-0.064538 0.284959 0)
(-0.00966224 0.231164 0)
(0.015408 0.402389 0)
(-0.211065 0.37953 0)
(-0.00253831 0.356757 0)
(0.00921803 0.24356 0)
(0.0199804 0.264362 0)
(0.0266521 0.259383 0)
(0.0211237 0.251407 0)
(0.0176242 0.243252 0)
(0.00974642 0.238253 0)
(-0.00138994 0.23141 0)
(-0.0194672 0.218852 0)
(-0.0427115 0.20399 0)
(-0.0636074 0.191882 0)
(-0.0760961 0.184084 0)
(-0.0832747 0.18153 0)
(-0.0988188 0.185038 0)
(-0.116524 0.207036 0)
(-0.122771 0.236034 0)
(-0.113621 0.255771 0)
(-0.0853821 0.259791 0)
(-0.046232 0.251773 0)
(-0.000176219 0.231364 0)
(0.0461368 0.167462 0)
(0.0643002 0.317888 0)
(0.238905 0.581655 0)
(-0.0013989 0.35495 0)
(0.00544528 0.235419 0)
(0.010775 0.257112 0)
(0.0166925 0.258204 0)
(0.013791 0.252892 0)
(0.0121467 0.247387 0)
(0.00849383 0.244638 0)
(0.00398254 0.241134 0)
(-0.004424 0.232702 0)
(-0.0171058 0.220217 0)
(-0.0309116 0.207716 0)
(-0.045066 0.198538 0)
(-0.0589672 0.196171 0)
(-0.0752812 0.201223 0)
(-0.0901153 0.217235 0)
(-0.0943341 0.234487 0)
(-0.0856719 0.238844 0)
(-0.0662068 0.229085 0)
(-0.0413596 0.214304 0)
(-0.00112297 0.18742 0)
(0.03572 0.12199 0)
(0.0209053 0.284564 0)
(0.220099 0.683118 0)
(0.00092549 0.352273 0)
(0.00449701 0.232021 0)
(0.00593463 0.252333 0)
(0.0103111 0.257152 0)
(0.0085869 0.253647 0)
(0.00762637 0.249321 0)
(0.0052794 0.246831 0)
(0.00323834 0.244352 0)
(-0.000386016 0.238984 0)
(-0.00731716 0.230196 0)
(-0.01763 0.220609 0)
(-0.0314655 0.213342 0)
(-0.046817 0.211613 0)
(-0.0625315 0.215498 0)
(-0.0748152 0.225066 0)
(-0.0785173 0.232921 0)
(-0.074838 0.229459 0)
(-0.0678662 0.214546 0)
(-0.0562669 0.194374 0)
(-0.0369712 0.159939 0)
(-0.0486125 0.11336 0)
(-0.0701086 0.284539 0)
(-0.00700512 0.679769 0)
(0.0031833 0.348394 0)
(0.00421389 0.231628 0)
(0.00366649 0.249901 0)
(0.00626274 0.256728 0)
(0.00481526 0.254632 0)
(0.00381188 0.251143 0)
(0.00149337 0.248741 0)
(-0.000417845 0.246567 0)
(-0.00312547 0.243149 0)
(-0.00829606 0.237619 0)
(-0.0169196 0.231575 0)
(-0.0290708 0.227406 0)
(-0.04291 0.226898 0)
(-0.056705 0.229298 0)
(-0.0674646 0.233505 0)
(-0.0729148 0.235225 0)
(-0.0753691 0.228461 0)
(-0.0769097 0.21209 0)
(-0.0721542 0.19157 0)
(-0.0685699 0.164409 0)
(-0.115329 0.134856 0)
(-0.180936 0.291999 0)
(-0.186544 0.62013 0)
(0.00421138 0.343987 0)
(0.00387755 0.23234 0)
(0.0027373 0.249256 0)
(0.00368456 0.256823 0)
(0.00229033 0.255748 0)
(0.00102887 0.253127 0)
(-0.00154003 0.251186 0)
(-0.00415232 0.249372 0)
(-0.00745286 0.247226 0)
(-0.0124597 0.244342 0)
(-0.0200836 0.241473 0)
(-0.0303881 0.239762 0)
(-0.0420464 0.239897 0)
(-0.0538721 0.241092 0)
(-0.064524 0.242565 0)
(-0.0733816 0.242085 0)
(-0.0824636 0.234733 0)
(-0.0930565 0.217021 0)
(-0.102195 0.196217 0)
(-0.117021 0.185134 0)
(-0.170903 0.199158 0)
(-0.262129 0.326409 0)
(-0.276938 0.562717 0)
(0.00414342 0.339885 0)
(0.00341527 0.233094 0)
(0.00226063 0.249699 0)
(0.00202021 0.257479 0)
(0.000683036 0.257014 0)
(-0.000794254 0.255251 0)
(-0.00338123 0.254007 0)
(-0.00645509 0.25287 0)
(-0.0102948 0.251815 0)
(-0.0153542 0.250812 0)
(-0.0221861 0.250122 0)
(-0.0308317 0.2501 0)
(-0.0406425 0.250968 0)
(-0.0512025 0.252262 0)
(-0.0624158 0.253593 0)
(-0.0745165 0.253835 0)
(-0.0890976 0.249453 0)
(-0.109441 0.2367 0)
(-0.138643 0.221585 0)
(-0.176716 0.221596 0)
(-0.233183 0.258409 0)
(-0.320129 0.363451 0)
(-0.330732 0.525793 0)
(0.00356222 0.336477 0)
(0.00289294 0.233691 0)
(0.00185539 0.250702 0)
(0.000977494 0.258482 0)
(-0.000257627 0.258359 0)
(-0.00178851 0.257391 0)
(-0.00417477 0.256892 0)
(-0.00720409 0.256565 0)
(-0.0110412 0.256489 0)
(-0.015842 0.256755 0)
(-0.0218418 0.257481 0)
(-0.0291104 0.258763 0)
(-0.0375376 0.2607 0)
(-0.0471457 0.26318 0)
(-0.0582875 0.266026 0)
(-0.0716259 0.268753 0)
(-0.088592 0.270016 0)
(-0.112933 0.267667 0)
(-0.150464 0.263751 0)
(-0.200791 0.271622 0)
(-0.261758 0.311879 0)
(-0.336026 0.405728 0)
(-0.355874 0.552277 0)
(0.00294957 0.333702 0)
(0.00243729 0.234175 0)
(0.00145978 0.251892 0)
(0.000413211 0.259552 0)
(-0.000671434 0.259682 0)
(-0.00210624 0.259353 0)
(-0.0041794 0.259518 0)
(-0.00684494 0.259956 0)
(-0.0102456 0.260728 0)
(-0.0144538 0.261947 0)
(-0.0195642 0.26372 0)
(-0.0256861 0.26613 0)
(-0.0329413 0.269282 0)
(-0.0414961 0.273287 0)
(-0.0517185 0.278207 0)
(-0.0643305 0.284087 0)
(-0.0805338 0.291086 0)
(-0.102755 0.298994 0)
(-0.135631 0.308262 0)
(-0.180963 0.325947 0)
(-0.233261 0.36575 0)
(-0.280941 0.446222 0)
(-0.277041 0.582956 0)
(0.00251756 0.331359 0)
(0.00212003 0.234642 0)
(0.00115696 0.253035 0)
(0.00025016 0.260521 0)
(-0.000660197 0.260872 0)
(-0.00188319 0.261037 0)
(-0.00359162 0.261736 0)
(-0.00577476 0.262804 0)
(-0.00854955 0.264286 0)
(-0.0119923 0.26629 0)
(-0.0161719 0.268936 0)
(-0.0212065 0.27235 0)
(-0.0272454 0.276682 0)
(-0.0344749 0.282147 0)
(-0.0431811 0.289015 0)
(-0.0538776 0.297696 0)
(-0.0673223 0.308927 0)
(-0.0845481 0.323601 0)
(-0.107615 0.342622 0)
(-0.138293 0.368904 0)
(-0.173143 0.407768 0)
(-0.198677 0.467013 0)
(-0.183882 0.553941 0)
(0.00227923 0.329257 0)
(0.00196555 0.23514 0)
(0.00100951 0.254028 0)
(0.000405647 0.26129 0)
(-0.000292218 0.261837 0)
(-0.00122063 0.262391 0)
(-0.00252879 0.263499 0)
(-0.00419327 0.265051 0)
(-0.00629762 0.267093 0)
(-0.00891627 0.269733 0)
(-0.0121151 0.273106 0)
(-0.0159914 0.277363 0)
(-0.0206516 0.282698 0)
(-0.0262427 0.289374 0)
(-0.0329492 0.29777 0)
(-0.0410273 0.308457 0)
(-0.0507947 0.322284 0)
(-0.0625371 0.340339 0)
(-0.0766108 0.363838 0)
(-0.0932381 0.394082 0)
(-0.111286 0.431511 0)
(-0.124714 0.475164 0)
(-0.118628 0.520572 0)
(0.00217325 0.327234 0)
(0.0019579 0.235652 0)
(0.00104203 0.254803 0)
(0.000805218 0.261801 0)
(0.000365896 0.262513 0)
(-0.000205725 0.263366 0)
(-0.00107624 0.264782 0)
(-0.00219431 0.266682 0)
(-0.00361607 0.26913 0)
(-0.00538848 0.272239 0)
(-0.00756112 0.276151 0)
(-0.0101915 0.281024 0)
(-0.0133326 0.287083 0)
(-0.0170629 0.2946 0)
(-0.0214569 0.303985 0)
(-0.0265788 0.315829 0)
(-0.0324481 0.33094 0)
(-0.039003 0.350241 0)
(-0.0460452 0.374708 0)
(-0.0529262 0.405144 0)
(-0.0590037 0.441028 0)
(-0.0641161 0.479538 0)
(-0.0670493 0.515351 0)
(0.002147 0.325188 0)
(0.00206468 0.23613 0)
(0.00124001 0.255305 0)
(0.00139081 0.262012 0)
(0.00124926 0.26285 0)
(0.00107482 0.263919 0)
(0.000674364 0.265552 0)
(0.000131426 0.267679 0)
(-0.00059116 0.270383 0)
(-0.00150631 0.273784 0)
(-0.00263468 0.278023 0)
(-0.00398304 0.283244 0)
(-0.00555339 0.289702 0)
(-0.00735758 0.297644 0)
(-0.00937026 0.307461 0)
(-0.0115218 0.319698 0)
(-0.0136491 0.335063 0)
(-0.0154709 0.35431 0)
(-0.0166467 0.378126 0)
(-0.0165048 0.40704 0)
(-0.0142268 0.441093 0)
(-0.0105177 0.479383 0)
(-0.00813024 0.520747 0)
(0.00217989 0.323041 0)
(0.00225443 0.236529 0)
(0.00156763 0.255496 0)
(0.00211377 0.261895 0)
(0.00229074 0.262816 0)
(0.00253997 0.264021 0)
(0.00262378 0.265777 0)
(0.00266801 0.268026 0)
(0.00265701 0.270844 0)
(0.00259748 0.274356 0)
(0.00248535 0.2787 0)
(0.00239286 0.28404 0)
(0.00236389 0.29057 0)
(0.00241621 0.298532 0)
(0.00267692 0.308274 0)
(0.0033022 0.320248 0)
(0.0045691 0.335073 0)
(0.00693752 0.353337 0)
(0.0108775 0.375567 0)
(0.0169931 0.402104 0)
(0.0262646 0.433224 0)
(0.0393822 0.469643 0)
(0.0557353 0.513395 0)
(0.00226443 0.320728 0)
(0.0025027 0.236815 0)
(0.00198811 0.255368 0)
(0.00293192 0.261436 0)
(0.00343154 0.262397 0)
(0.00410392 0.263665 0)
(0.00467815 0.265453 0)
(0.00530094 0.267718 0)
(0.00597442 0.270522 0)
(0.00673511 0.273987 0)
(0.00762438 0.278243 0)
(0.00871316 0.283468 0)
(0.0100841 0.289782 0)
(0.011848 0.297408 0)
(0.0141574 0.306645 0)
(0.017263 0.31784 0)
(0.0214942 0.331486 0)
(0.0273837 0.348055 0)
(0.0355906 0.367916 0)
(0.0467495 0.3912 0)
(0.0619723 0.418066 0)
(0.0830736 0.449102 0)
(0.111676 0.486212 0)
(0.0023837 0.318196 0)
(0.00278713 0.236971 0)
(0.00248041 0.254921 0)
(0.00380554 0.260642 0)
(0.00462194 0.261586 0)
(0.00570423 0.262856 0)
(0.00674955 0.264595 0)
(0.00792541 0.266775 0)
(0.00924673 0.269457 0)
(0.0107746 0.272743 0)
(0.0125765 0.276754 0)
(0.0147363 0.281626 0)
(0.0173596 0.287488 0)
(0.0206237 0.294504 0)
(0.0247147 0.302889 0)
(0.0299006 0.312927 0)
(0.0365772 0.324919 0)
(0.0453038 0.339263 0)
(0.0567214 0.356174 0)
(0.0716517 0.375549 0)
(0.0911823 0.397264 0)
(0.117102 0.420974 0)
(0.151319 0.44686 0)
(0.00250588 0.315435 0)
(0.00308806 0.236953 0)
(0.00304077 0.254157 0)
(0.0047016 0.259516 0)
(0.00581842 0.260405 0)
(0.00729354 0.261613 0)
(0.00877258 0.263238 0)
(0.0104626 0.265252 0)
(0.0123738 0.26771 0)
(0.0145876 0.270696 0)
(0.0171892 0.27432 0)
(0.0202799 0.278689 0)
(0.0239909 0.283899 0)
(0.0285142 0.290084 0)
(0.0340675 0.297378 0)
(0.0409072 0.305966 0)
(0.0494497 0.316056 0)
(0.060278 0.327897 0)
(0.0739585 0.341524 0)
(0.091303 0.356772 0)
(0.113251 0.373081 0)
(0.141148 0.389553 0)
(0.17616 0.405225 0)
(0.00260527 0.312457 0)
(0.00339753 0.236717 0)
(0.00364583 0.253076 0)
(0.00561191 0.258073 0)
(0.00700415 0.258887 0)
(0.00883917 0.259976 0)
(0.0107112 0.261432 0)
(0.0128509 0.263206 0)
(0.0152712 0.265357 0)
(0.0180735 0.267951 0)
(0.0213561 0.271078 0)
(0.0252136 0.274819 0)
(0.0298006 0.279247 0)
(0.0353347 0.284453 0)
(0.0420143 0.29049 0)
(0.0500982 0.297475 0)
(0.0600067 0.305523 0)
(0.0722248 0.314771 0)
(0.0873102 0.32509 0)
(0.105936 0.336274 0)
(0.128795 0.347534 0)
(0.156887 0.357808 0)
(0.190649 0.365775 0)
(0.0026719 0.309269 0)
(0.00372904 0.236226 0)
(0.00427569 0.251682 0)
(0.00652724 0.25636 0)
(0.00816927 0.257055 0)
(0.0103189 0.257993 0)
(0.0125276 0.259228 0)
(0.0150444 0.260712 0)
(0.0178929 0.262497 0)
(0.0211719 0.264635 0)
(0.0249867 0.267185 0)
(0.0294447 0.270211 0)
(0.0347143 0.273765 0)
(0.0409821 0.277898 0)
(0.0484725 0.282593 0)
(0.0574223 0.287924 0)
(0.0682118 0.293892 0)
(0.081241 0.300556 0)
(0.0969995 0.307762 0)
(0.116033 0.315174 0)
(0.138799 0.322022 0)
(0.166005 0.327221 0)
(0.19765 0.329436 0)
(0.00272065 0.305872 0)
(0.00409812 0.235465 0)
(0.00491393 0.249982 0)
(0.00743145 0.254406 0)
(0.00928411 0.254944 0)
(0.011716 0.255711 0)
(0.0142017 0.25669 0)
(0.0170278 0.257859 0)
(0.0202134 0.259239 0)
(0.0238532 0.26087 0)
(0.028062 0.262797 0)
(0.0329484 0.265061 0)
(0.0386886 0.267687 0)
(0.0454527 0.270685 0)
(0.0534554 0.274032 0)
(0.0629094 0.277702 0)
(0.074137 0.28167 0)
(0.0874944 0.285876 0)
(0.103351 0.290222 0)
(0.122146 0.294287 0)
(0.144182 0.297387 0)
(0.169894 0.298477 0)
(0.199085 0.296382 0)
(0.00278879 0.302237 0)
(0.00451395 0.234453 0)
(0.00551831 0.247996 0)
(0.00829618 0.252226 0)
(0.0103226 0.252593 0)
(0.0130027 0.253177 0)
(0.0157133 0.253881 0)
(0.0187883 0.25472 0)
(0.0222217 0.255675 0)
(0.0261246 0.256785 0)
(0.0306053 0.258069 0)
(0.0357676 0.259548 0)
(0.0417781 0.261238 0)
(0.0488089 0.263103 0)
(0.057048 0.265116 0)
(0.0666876 0.267182 0)
(0.0779823 0.269266 0)
(0.0912484 0.271233 0)
(0.106762 0.272984 0)
(0.124867 0.274146 0)
(0.145763 0.274084 0)
(0.169695 0.271843 0)
(0.196425 0.266476 0)
(0.00292693 0.298304 0)
(0.00498073 0.233257 0)
(0.00604847 0.245765 0)
(0.00908486 0.249856 0)
(0.0112424 0.250039 0)
(0.0141408 0.250432 0)
(0.0170245 0.250857 0)
(0.0202982 0.251354 0)
(0.0239219 0.251888 0)
(0.028009 0.252485 0)
(0.0326545 0.253135 0)
(0.0379719 0.253844 0)
(0.0441032 0.254611 0)
(0.0512036 0.25539 0)
(0.0594398 0.256117 0)
(0.0689957 0.256689 0)
(0.0800715 0.257031 0)
(0.0929151 0.256995 0)
(0.107757 0.256444 0)
(0.124858 0.2551 0)
(0.144346 0.252356 0)
(0.166381 0.247381 0)
(0.190748 0.239402 0)
(0.0031686 0.294004 0)
(0.00547401 0.23198 0)
(0.00647586 0.243364 0)
(0.00974924 0.247335 0)
(0.0119877 0.247322 0)
(0.0150725 0.247521 0)
(0.0180754 0.24766 0)
(0.0215103 0.247823 0)
(0.0252768 0.247947 0)
(0.0294925 0.248038 0)
(0.0342374 0.248083 0)
(0.0396206 0.248066 0)
(0.0457689 0.24796 0)
(0.0528093 0.24772 0)
(0.0608885 0.247253 0)
(0.0701785 0.246471 0)
(0.0808327 0.245247 0)
(0.0930369 0.243441 0)
(0.106996 0.24089 0)
(0.1229 0.237376 0)
(0.140845 0.232349 0)
(0.160959 0.225079 0)
(0.183062 0.214876 0)
(0.00350816 0.289287 0)
(0.00595098 0.230705 0)
(0.00677077 0.240879 0)
(0.0102329 0.244704 0)
(0.0124887 0.244487 0)
(0.0157167 0.244484 0)
(0.0187799 0.244337 0)
(0.0223335 0.244168 0)
(0.0261883 0.243893 0)
(0.0304851 0.243498 0)
(0.0352877 0.242972 0)
(0.0406867 0.242281 0)
(0.0467965 0.241379 0)
(0.0537116 0.240204 0)
(0.061569 0.238669 0)
(0.0705108 0.236672 0)
(0.0806531 0.234061 0)
(0.0921371 0.230719 0)
(0.105135 0.226461 0)
(0.119796 0.221078 0)
(0.136211 0.214107 0)
(0.154477 0.204871 0)
(0.17444 0.192698 0)
(0.00392594 0.284135 0)
(0.00637732 0.22952 0)
(0.00689499 0.238407 0)
(0.0104748 0.242013 0)
(0.0126642 0.24159 0)
(0.0159758 0.241375 0)
(0.0190157 0.240941 0)
(0.0226197 0.240442 0)
(0.0264935 0.23977 0)
(0.0308081 0.238913 0)
(0.0356191 0.237846 0)
(0.0409903 0.236523 0)
(0.0470149 0.234897 0)
(0.0537815 0.23288 0)
(0.0613997 0.230396 0)
(0.0699696 0.22732 0)
(0.0796088 0.223505 0)
(0.0904153 0.218832 0)
(0.102507 0.213121 0)
(0.116022 0.206148 0)
(0.131059 0.197516 0)
(0.147677 0.186592 0)
(0.165732 0.172706 0)
(0.00440276 0.278549 0)
(0.00671814 0.228537 0)
(0.0068157 0.23607 0)
(0.0104266 0.239334 0)
(0.0124344 0.238709 0)
(0.0157374 0.238279 0)
(0.018651 0.237553 0)
(0.0222035 0.236722 0)
(0.0259932 0.235651 0)
(0.0302298 0.234344 0)
(0.0349465 0.232756 0)
(0.0402058 0.230831 0)
(0.04608 0.228529 0)
(0.0526398 0.225752 0)
(0.0599803 0.22241 0)
(0.0681704 0.218378 0)
(0.0773166 0.213522 0)
(0.0874985 0.207692 0)
(0.0987967 0.200724 0)
(0.111323 0.192382 0)
(0.125173 0.182316 0)
(0.140401 0.169954 0)
(0.15684 0.154654 0)
(0.00491143 0.272562 0)
(0.00693872 0.227897 0)
(0.00651175 0.234031 0)
(0.0100511 0.236798 0)
(0.0117495 0.235976 0)
(0.0149365 0.235338 0)
(0.0175914 0.234314 0)
(0.0209655 0.23315 0)
(0.0245365 0.231683 0)
(0.0285587 0.229926 0)
(0.0330352 0.227824 0)
(0.0380378 0.225333 0)
(0.0436243 0.222389 0)
(0.0498483 0.218907 0)
(0.0567939 0.214785 0)
(0.0645164 0.209885 0)
(0.0730986 0.204095 0)
(0.0826084 0.197245 0)
(0.0931126 0.189169 0)
(0.1047 0.179621 0)
(0.117446 0.168293 0)
(0.131415 0.154703 0)
(0.146394 0.138251 0)
(0.00538335 0.266302 0)
(0.00699328 0.227681 0)
(0.00600327 0.232414 0)
(0.00935557 0.234541 0)
(0.0106221 0.233544 0)
(0.013582 0.232697 0)
(0.0158485 0.231381 0)
(0.0189225 0.229891 0)
(0.0221243 0.228037 0)
(0.025773 0.225841 0)
(0.0298499 0.223252 0)
(0.0344151 0.220228 0)
(0.0395186 0.216686 0)
(0.0452129 0.212549 0)
(0.0515547 0.207703 0)
(0.0586058 0.202014 0)
(0.0664322 0.195365 0)
(0.0750817 0.187595 0)
(0.0846112 0.178525 0)
(0.0950923 0.167916 0)
(0.106559 0.155483 0)
(0.119083 0.140825 0)
(0.132428 0.123422 0)
(0.00576673 0.259908 0)
(0.00684699 0.227867 0)
(0.00531719 0.231243 0)
(0.00839383 0.232592 0)
(0.00914552 0.231478 0)
(0.0117875 0.230395 0)
(0.0135702 0.228817 0)
(0.0162444 0.227021 0)
(0.0189535 0.22481 0)
(0.0221025 0.222216 0)
(0.0256275 0.219187 0)
(0.0295787 0.215669 0)
(0.0340054 0.211594 0)
(0.0389555 0.206867 0)
(0.0444738 0.201366 0)
(0.0506128 0.194975 0)
(0.0574195 0.187569 0)
(0.0649285 0.178993 0)
(0.0731897 0.169062 0)
(0.0822495 0.157556 0)
(0.0920741 0.144204 0)
(0.102728 0.128693 0)
(0.113966 0.110573 0)
(0.00598147 0.253458 0)
(0.00647046 0.228371 0)
(0.00452693 0.230489 0)
(0.00724496 0.230953 0)
(0.00748177 0.22979 0)
(0.00973485 0.228436 0)
(0.0110173 0.226643 0)
(0.0132336 0.224565 0)
(0.015382 0.222043 0)
(0.0179495 0.219104 0)
(0.020818 0.215684 0)
(0.0240455 0.211744 0)
(0.0276733 0.207208 0)
(0.0317351 0.201969 0)
(0.0362705 0.195911 0)
(0.0413233 0.188923 0)
(0.0469191 0.180884 0)
(0.0530752 0.171643 0)
(0.0598264 0.161024 0)
(0.067181 0.148815 0)
(0.0750674 0.134771 0)
(0.0834976 0.118672 0)
(0.09225 0.100133 0)
(0.00583498 0.247326 0)
(0.00578805 0.229236 0)
(0.00373137 0.23026 0)
(0.00600012 0.22982 0)
(0.00582455 0.228648 0)
(0.0076577 0.227011 0)
(0.00848604 0.225058 0)
(0.0102275 0.222725 0)
(0.011822 0.219947 0)
(0.0137948 0.216722 0)
(0.0159918 0.212989 0)
(0.0184771 0.208712 0)
(0.0212758 0.203797 0)
(0.0244252 0.198139 0)
(0.0279503 0.19164 0)
(0.0318724 0.184189 0)
(0.0362079 0.175659 0)
(0.0409604 0.165913 0)
(0.0461366 0.154789 0)
(0.0517116 0.142098 0)
(0.0576093 0.127636 0)
(0.063791 0.111236 0)
(0.0700755 0.0926164 0)
(0.00514829 0.241972 0)
(0.0047809 0.230165 0)
(0.00298079 0.230359 0)
(0.00473528 0.229111 0)