/*--------------------------------*- C++ -*----------------------------------*\
| =========                 |                                                 |
| \\      /  F ield         | OpenFOAM: The Open Source CFD Toolbox           |
|  \\    /   O peration     | Version:  2206                                  |
|   \\  /    A nd           | Website:  www.openfoam.com                      |
|    \\/     M anipulation  |                                                 |
\*---------------------------------------------------------------------------*/
FoamFile
{
    version     2.0;
    format      ascii;
    arch        "LSB;label=32;scalar=64";
    class       volVectorField;
    location    "0.975";
    object      U;
}
// * * * * * * * * * * * * * * * * * * * * * * * * * * * * * * * * * * * * * //

dimensions      [0 1 -1 0 0 0 0];

internalField   nonuniform List<vector> 
2268
(
(0.0274587 -0.0205687 0)
(0.0633952 -0.0106267 0)
(0.0470065 0.00799438 0)
(-0.0134438 0.0165435 0)
(-0.0469799 0.00765749 0)
(-0.0303182 -0.00353297 0)
(-0.0073291 -0.00265865 0)
(-0.0059843 0.00232179 0)
(-0.0227233 0.00529647 0)
(-0.0484559 0.00723424 0)
(-0.0800373 0.00752532 0)
(-0.110612 0.00357354 0)
(-0.12518 -0.00566117 0)
(-0.12053 -0.0115633 0)
(-0.124387 0.001125 0)
(-0.184977 0.0244713 0)
(-0.281376 0.0259334 0)
(-0.312417 0.00390937 0)
(-0.256947 -0.0169323 0)
(-0.201034 -0.0197019 0)
(-0.149147 -0.0198219 0)
(-0.0888349 -0.0222816 0)
(-0.0275784 -0.0174117 0)
(-0.003999 -0.0249588 0)
(-0.0206499 0.00224636 0)
(-0.0510565 0.028153 0)
(-0.0822528 0.0276237 0)
(-0.0716898 0.00214374 0)
(-0.0402236 -0.0164251 0)
(-0.0145634 -0.00947366 0)
(-0.00868139 0.00619499 0)
(-0.0271187 0.0160053 0)
(-0.0556848 0.0214055 0)
(-0.0884661 0.0229976 0)
(-0.120362 0.0184385 0)
(-0.150407 0.00925331 0)
(-0.19064 0.0101365 0)
(-0.240721 0.0320607 0)
(-0.281754 0.0478629 0)
(-0.28093 0.0284724 0)
(-0.205701 -0.0142918 0)
(-0.144879 -0.0393505 0)
(-0.113433 -0.0360716 0)
(-0.0841358 -0.0344158 0)
(-0.0545003 -0.0430375 0)
(-0.0129048 -0.0395575 0)
(-0.0184377 -0.0102294 0)
(-0.0545907 0.0163334 0)
(-0.0873094 0.0376078 0)
(-0.0958672 0.0268025 0)
(-0.0796649 -0.00998097 0)
(-0.0514409 -0.0329323 0)
(-0.0221282 -0.0191104 0)
(-0.0139773 0.00895527 0)
(-0.0289504 0.0263184 0)
(-0.0526441 0.0343799 0)
(-0.0768603 0.0361579 0)
(-0.0991761 0.0325944 0)
(-0.124444 0.0277706 0)
(-0.158976 0.030477 0)
(-0.193327 0.0426257 0)
(-0.196994 0.0378624 0)
(-0.148373 -0.0025512 0)
(-0.0891279 -0.0461758 0)
(-0.0681623 -0.0578115 0)
(-0.0590096 -0.0487838 0)
(-0.0349016 -0.0426492 0)
(-0.0355398 -0.0516279 0)
(-0.0015159 -0.0498431 0)
(-0.0151529 0.00526296 0)
(-0.0449779 0.0308165 0)
(-0.0735511 0.045337 0)
(-0.0830273 0.0276501 0)
(-0.0734462 -0.0184705 0)
(-0.0465058 -0.0490429 0)
(-0.0241104 -0.0285199 0)
(-0.0200774 0.0115254 0)
(-0.0361936 0.0356012 0)
(-0.0600049 0.0455538 0)
(-0.0828478 0.0460505 0)
(-0.100434 0.0409287 0)
(-0.113382 0.0370386 0)
(-0.12083 0.0401486 0)
(-0.115798 0.0439687 0)
(-0.0903348 0.027058 0)
(-0.0536186 -0.0138444 0)
(-0.041832 -0.0470901 0)
(-0.0475398 -0.0556008 0)
(-0.0527533 -0.0516342 0)
(-0.0339397 -0.0462188 0)
(-0.0387735 -0.0579913 0)
(-0.00307826 -0.0574322 0)
(-0.00208617 0.0140945 0)
(-0.0125882 0.0414449 0)
(-0.0357532 0.0538396 0)
(-0.0504861 0.0316061 0)
(-0.0436737 -0.0252973 0)
(-0.0223113 -0.0606999 0)
(-0.0157975 -0.0325687 0)
(-0.0224089 0.0173407 0)
(-0.0450279 0.0461644 0)
(-0.072322 0.0572229 0)
(-0.098065 0.0555229 0)
(-0.116216 0.0462186 0)
(-0.123202 0.0374394 0)
(-0.115767 0.0344624 0)
(-0.093039 0.0301328 0)
(-0.0641924 0.0101962 0)
(-0.0459908 -0.0222675 0)
(-0.0428188 -0.0473338 0)
(-0.043764 -0.0544243 0)
(-0.0467548 -0.0534492 0)
(-0.0378968 -0.0493534 0)
(-0.0395947 -0.0653572 0)
(-0.00892262 -0.0684105 0)
(0.0162515 0.0118586 0)
(0.0315494 0.045836 0)
(0.0170573 0.0626041 0)
(-0.000634471 0.0363868 0)
(0.00563862 -0.0290392 0)
(0.0227794 -0.065212 0)
(0.00326628 -0.0285807 0)
(-0.0176412 0.0289323 0)
(-0.0502975 0.0608168 0)
(-0.0813635 0.0722079 0)
(-0.109616 0.0676193 0)
(-0.129258 0.05272 0)
(-0.134935 0.037093 0)
(-0.125476 0.0277436 0)
(-0.103571 0.0189202 0)
(-0.0764682 -0.000260134 0)
(-0.0521799 -0.0286296 0)
(-0.036607 -0.0498825 0)
(-0.0273909 -0.0552801 0)
(-0.0260243 -0.0538751 0)
(-0.0233347 -0.0533018 0)
(-0.0257133 -0.0730477 0)
(-0.0114499 -0.0803625 0)
(0.0388768 -0.00951484 0)
(0.0822151 0.0417944 0)
(0.0782463 0.0704086 0)
(0.0566621 0.0424123 0)
(0.0766554 -0.0326454 0)
(0.080577 -0.0612449 0)
(0.0355498 -0.0161206 0)
(0.00460179 0.0467734 0)
(-0.0351 0.07577 0)
(-0.0692009 0.0840703 0)
(-0.100192 0.0759803 0)
(-0.121948 0.0541529 0)
(-0.127356 0.0310055 0)
(-0.117023 0.016754 0)
(-0.0936115 0.00353596 0)
(-0.0652581 -0.0159928 0)
(-0.0418013 -0.0388548 0)
(-0.0276918 -0.0556456 0)
(-0.0172914 -0.0614662 0)
(-0.0115684 -0.0560825 0)
(-0.00395635 -0.0528263 0)
(-0.00443209 -0.0755996 0)
(-0.00343384 -0.0918962 0)
(0.0699258 -0.0424941 0)
(0.135867 0.0273747 0)
(0.139653 0.0742385 0)
(0.124093 0.0414561 0)
(0.151428 -0.0392903 0)
(0.122112 -0.0534031 0)
(0.0750155 0.00496926 0)
(0.0483555 0.0655896 0)
(0.00566924 0.0976273 0)
(-0.0363014 0.109312 0)
(-0.0747409 0.099767 0)
(-0.100228 0.071714 0)
(-0.10549 0.0381471 0)
(-0.0959818 0.0119523 0)
(-0.0790193 -0.00519085 0)
(-0.066368 -0.0238519 0)
(-0.0646025 -0.0490702 0)
(-0.0818057 -0.0669535 0)
(-0.0984095 -0.0714203 0)
(-0.0846306 -0.058816 0)
(-0.026851 -0.0475985 0)
(0.00547384 -0.0599952 0)
(0.0172756 -0.0790782 0)
(0.0846548 -0.00603916 0)
(-0.174037 0.0378411 0)
(-0.240797 -0.0117516 0)
(-0.0389383 -0.0717295 0)
(0.20818 -0.072135 0)
(0.387405 -0.00117561 0)
(0.331672 0.0243537 0)
(0.15701 -0.000565529 0)
(0.222848 -0.0387869 0)
(0.327524 -0.034226 0)
(0.341983 0.0296397 0)
(0.0507037 0.0551202 0)
(-0.234777 0.0487688 0)
(-0.368152 0.0523905 0)
(-0.445912 0.0259671 0)
(-0.335045 -0.0232611 0)
(-0.177923 -0.0390254 0)
(-0.0398229 -0.0190313 0)
(0.0488941 0.00513782 0)
(-0.0230457 0.0405148 0)
(-0.2314 0.0888386 0)
(-0.177243 -0.0208163 0)
(-0.0258176 -0.156507 0)
(0.164273 -0.168972 0)
(0.295446 0.000210202 0)
(0.319039 0.0632733 0)
(0.0534721 0.0376932 0)
(0.0231632 -0.0244104 0)
(0.0107915 -0.0347048 0)
(0.249559 0.108367 0)
(-0.0221212 0.172478 0)
(-0.430372 0.118212 0)
(-0.477226 0.0404024 0)
(-0.391196 -0.0355993 0)
(-0.279822 -0.0869156 0)
(-0.190778 -0.106117 0)
(-0.0536208 -0.0853008 0)
(0.117366 -0.00325362 0)
(-0.0621608 0.0870409 0)
(-0.200136 0.115786 0)
(-0.148966 -0.0579878 0)
(0.00456671 -0.24232 0)
(0.111851 -0.234795 0)
(0.133932 -0.0184153 0)
(0.0144992 0.147711 0)
(-0.393224 0.127517 0)
(-0.391095 -0.057378 0)
(-0.2606 -0.115314 0)
(-0.0527912 0.115255 0)
(-0.136033 0.281825 0)
(-0.431917 0.183914 0)
(-0.383023 0.0463304 0)
(-0.334598 -0.0440361 0)
(-0.36089 -0.0825426 0)
(-0.326683 -0.151347 0)
(-0.141111 -0.148754 0)
(0.105292 0.0281799 0)
(-0.0553482 0.127672 0)
(-0.142396 0.133331 0)
(-0.116673 -0.0885551 0)
(0.0140677 -0.300627 0)
(0.00210396 -0.230308 0)
(-0.148684 0.096036 0)
(-0.41922 0.276661 0)
(-0.658213 0.143492 0)
(-0.512413 -0.148117 0)
(-0.455495 -0.176361 0)
(-0.292682 0.110066 0)
(-0.225771 0.332609 0)
(-0.370317 0.208856 0)
(-0.312627 0.0261945 0)
(-0.39432 -0.0250706 0)
(-0.513681 -0.0816669 0)
(-0.469038 -0.218677 0)
(-0.187175 -0.241475 0)
(-0.000969667 -0.0160909 0)
(-0.0253021 0.15466 0)
(-0.0696693 0.145753 0)
(-0.0489686 -0.102457 0)
(0.0248841 -0.305372 0)
(-0.140916 -0.15265 0)
(-0.432085 0.218217 0)
(-0.672344 0.332082 0)
(-0.632451 0.108896 0)
(-0.477628 -0.174475 0)
(-0.549277 -0.207458 0)
(-0.446441 0.0756096 0)
(-0.291591 0.316298 0)
(-0.314636 0.221023 0)
(-0.345966 0.0692137 0)
(-0.568413 0.0247588 0)
(-0.802417 -0.0725803 0)
(-0.581068 -0.279843 0)
(-0.17063 -0.334175 0)
(0.0336796 -0.062664 0)
(0.0181615 0.162487 0)
(0.0150528 0.151966 0)
(0.0553445 -0.101318 0)
(0.0661358 -0.254313 0)
(-0.246858 -0.0365328 0)
(-0.624402 0.336488 0)
(-0.711067 0.36471 0)
(-0.434507 0.131938 0)
(-0.410754 -0.146953 0)
(-0.58188 -0.192085 0)
(-0.548892 0.041485 0)
(-0.379502 0.258415 0)
(-0.316759 0.218058 0)
(-0.47511 0.134664 0)
(-0.925911 0.166777 0)
(-1.2128 0.0347135 0)
(-0.482107 -0.55164 0)
(-0.125514 -0.421781 0)
(0.106168 -0.0816539 0)
(0.0618004 0.138553 0)
(0.110037 0.145027 0)
(0.169152 -0.0888997 0)
(0.15124 -0.186873 0)
(-0.216112 0.0894776 0)
(-0.64431 0.414563 0)
(-0.528763 0.322218 0)
(-0.307987 0.0306693 0)
(-0.495302 -0.140251 0)
(-0.643933 -0.153958 0)
(-0.610844 0.0208323 0)
(-0.469487 0.18783 0)
(-0.413422 0.235311 0)
(-0.830705 0.310233 0)
(-1.49594 0.335208 0)
(-1.01834 -0.24476 0)
(-0.423556 -0.804924 0)
(-0.119227 -0.583723 0)
(0.11067 -0.075752 0)
(0.090749 0.0799885 0)
(0.193477 0.108702 0)
(0.28088 -0.07237 0)
(0.246824 -0.123079 0)
(-0.0337634 0.220569 0)
(-0.547126 0.483292 0)
(-0.281997 0.291766 0)
(-0.255834 0.0246773 0)
(-0.587582 -0.0759496 0)
(-0.755668 -0.126775 0)
(-0.70309 -0.00557861 0)
(-0.687349 0.188504 0)
(-0.833823 0.354547 0)
(-1.24118 0.453763 0)
(-1.33007 0.167632 0)
(-0.828049 -0.501059 0)
(-0.330569 -0.982088 0)
(-0.145631 -0.764589 0)
(0.207222 -0.0481161 0)
(0.1009 -0.13034 0)
(0.240822 0.00559884 0)
(0.258985 0.090605 0)
(0.23641 0.0599811 0)
(0.208701 -0.00767672 0)
(0.126389 -0.0259013 0)
(0.0950915 0.0108807 0)
(0.0599274 0.0897805 0)
(-0.0504291 0.112519 0)
(-0.13412 0.117102 0)
(-0.180047 0.101947 0)
(-0.193173 0.0643572 0)
(-0.19216 0.0277842 0)
(-0.194601 0.0022937 0)
(-0.21426 -0.0222016 0)
(-0.260854 -0.0442641 0)
(-0.37287 -0.0323266 0)
(-0.557932 0.0236676 0)
(-0.638691 0.0123824 0)
(-0.510572 -0.0957579 0)
(-0.273126 -0.148547 0)
(-0.0694223 -0.116015 0)
(0.0320934 -0.053498 0)
(0.0447138 -0.394961 0)
(0.263881 -0.133601 0)
(0.334486 0.0967592 0)
(0.323299 0.10903 0)
(0.270916 0.0532865 0)
(0.193552 0.042635 0)
(0.0244737 0.0657023 0)
(-0.10548 0.203157 0)
(-0.345558 0.27796 0)
(-0.548866 0.261612 0)
(-0.640898 0.179644 0)
(-0.674634 0.0854288 0)
(-0.668527 0.0177753 0)
(-0.679837 0.0257708 0)
(-0.843819 0.0983079 0)
(-1.11127 0.192037 0)
(-1.32119 0.276916 0)
(-1.32544 0.126453 0)
(-1.01626 -0.268575 0)
(-0.715559 -0.451062 0)
(-0.463234 -0.463858 0)
(-0.260883 -0.361261 0)
(-0.0851364 -0.218238 0)
(-0.0433113 -0.574535 0)
(0.151085 -0.294188 0)
(0.191442 -0.0304566 0)
(0.1921 0.0739079 0)
(0.129019 0.134657 0)
(0.0047409 0.136004 0)
(-0.219229 0.277161 0)
(-0.711006 0.56245 0)
(-1.13484 0.498032 0)
(-1.28871 0.319182 0)
(-1.28349 0.179066 0)
(-1.23185 0.0793494 0)
(-1.19781 0.046204 0)
(-1.19529 0.200667 0)
(-1.26119 0.388969 0)
(-1.32282 0.388788 0)
(-1.24885 0.182069 0)
(-1.04611 -0.191141 0)
(-0.882552 -0.468125 0)
(-0.703181 -0.633409 0)
(-0.557835 -0.639264 0)
(-0.462127 -0.524246 0)
(-0.370419 -0.395379 0)
(-0.172575 -0.469901 0)
(-0.217019 -0.116145 0)
(-0.306319 0.086079 0)
(-0.259787 0.151539 0)
(-0.284342 0.232266 0)
(-0.566471 0.44323 0)
(-1.00206 0.902558 0)
(-1.13846 0.986684 0)
(-1.38998 0.764927 0)
(-1.55476 0.407816 0)
(-1.5506 0.137938 0)
(-1.44457 -0.0559123 0)
(-1.33068 -0.0776908 0)
(-1.25128 0.101486 0)
(-1.1773 0.263128 0)
(-1.11105 0.152484 0)
(-1.08123 -0.0655029 0)
(-1.09457 -0.30553 0)
(-1.04804 -0.642478 0)
(-0.895748 -0.841933 0)
(-0.811528 -0.736583 0)
(-0.797417 -0.544143 0)
(-0.814481 -0.390296 0)
(-0.292365 -0.169717 0)
(-0.595346 -0.0243838 0)
(-0.836415 -0.0195675 0)
(-1.00364 0.218432 0)
(-1.18112 0.532848 0)
(-1.20743 0.77089 0)
(-1.06621 0.932804 0)
(-0.966543 1.0555 0)
(-0.973951 0.994751 0)
(-1.10599 0.693664 0)
(-1.36453 0.0818881 0)
(-1.4213 -0.16017 0)
(-1.42502 -0.165433 0)
(-1.33984 0.00764014 0)
(-1.19455 0.189452 0)
(-1.10603 0.259187 0)
(-1.21097 0.11722 0)
(-1.33518 -0.250855 0)
(-1.09888 -0.812166 0)
(-1.02166 -0.925854 0)
(-1.00643 -0.720911 0)
(-1.05604 -0.454472 0)
(-1.13443 -0.277876 0)
(-0.228532 0.177779 0)
(-0.630924 0.469686 0)
(-1.15441 0.461064 0)
(-1.43383 0.319945 0)
(-1.41281 0.312257 0)
(-1.24092 0.442154 0)
(-1.03305 0.632023 0)
(-0.813677 0.768324 0)
(-0.676552 0.840211 0)
(-0.715423 0.874845 0)
(-1.15328 0.49225 0)
(-1.48571 0.0516164 0)
(-1.74448 -0.0892003 0)
(-1.6055 -0.0498471 0)
(-1.41938 0.0729751 0)
(-1.25974 0.228035 0)
(-1.13486 0.270893 0)
(-1.03633 -0.122504 0)
(-1.00203 -0.844344 0)
(-1.05073 -0.917979 0)
(-1.04583 -0.686729 0)
(-1.05257 -0.404362 0)
(-1.20824 -0.279934 0)
(-0.152684 0.466147 0)
(-0.458752 1.01445 0)
(-1.22207 0.751072 0)
(-1.43086 0.335134 0)
(-1.43348 0.263294 0)
(-1.2926 0.345228 0)
(-1.15344 0.458045 0)
(-1.01469 0.575337 0)
(-0.885306 0.801631 0)
(-0.883641 1.13179 0)
(-1.21264 0.973112 0)
(-1.47389 0.305239 0)
(-1.53202 -0.144094 0)
(-1.45642 -0.292669 0)
(-1.37449 -0.250146 0)
(-1.25555 -0.111128 0)
(-1.06908 -0.0721929 0)
(-0.886473 -0.326675 0)
(-0.971282 -0.79942 0)
(-1.09362 -0.870305 0)
(-1.07332 -0.686302 0)
(-0.987449 -0.385629 0)
(-0.894078 -0.139902 0)
(-0.140584 0.630439 0)
(-0.173337 1.60756 0)
(-0.824703 1.50689 0)
(-1.00996 0.497922 0)
(-1.09552 0.183378 0)
(-1.20944 0.287653 0)
(-1.18921 0.423197 0)
(-1.14431 0.541872 0)
(-1.1314 0.834886 0)
(-1.18215 1.297 0)
(-1.28246 1.12674 0)
(-1.27622 0.475847 0)
(-1.27463 0.0203094 0)
(-1.33435 -0.176514 0)
(-1.36071 -0.204732 0)
(-1.33435 -0.152838 0)
(-1.2193 -0.128264 0)
(-1.04323 -0.311354 0)
(-0.996079 -0.726464 0)
(-1.09883 -0.843227 0)
(-1.1095 -0.714978 0)
(-0.987141 -0.513023 0)
(-0.7827 -0.296435 0)
(-0.164448 0.704761 0)
(-0.0711046 2.15653 0)
(-0.711198 1.95026 0)
(-0.866584 0.824874 0)
(-1.21521 0.431269 0)
(-1.41525 0.320832 0)
(-1.51264 0.341803 0)
(-1.54886 0.534247 0)
(-1.50218 0.904786 0)
(-1.41449 1.20411 0)
(-1.25025 0.942693 0)
(-1.1113 0.371873 0)
(-1.11723 0.0102801 0)
(-1.18348 -0.135367 0)
(-1.22657 -0.196542 0)
(-1.20568 -0.203634 0)
(-1.08883 -0.274208 0)
(-0.968291 -0.494184 0)
(-0.942962 -0.732703 0)
(-0.988852 -0.814835 0)
(-1.03661 -0.789555 0)
(-1.01828 -0.709797 0)
(-0.924911 -0.626038 0)
(-0.20325 0.74112 0)
(0.00654165 2.5257 0)
(-0.650826 2.10861 0)
(-0.738349 1.10676 0)
(-1.13276 0.744081 0)
(-1.34137 0.545518 0)
(-1.50661 0.43637 0)
(-1.60507 0.504991 0)
(-1.55811 0.751873 0)
(-1.35276 0.909296 0)
(-1.09253 0.683391 0)
(-0.945279 0.288959 0)
(-0.932895 0.0238776 0)
(-0.928035 -0.151062 0)
(-0.908243 -0.254888 0)
(-0.868681 -0.297008 0)
(-0.804909 -0.356814 0)
(-0.760132 -0.522858 0)
(-0.770582 -0.71777 0)
(-0.794275 -0.781255 0)
(-0.756562 -0.692201 0)
(-0.693853 -0.619401 0)
(-0.812994 -0.703375 0)
(-0.255475 0.790233 0)
(0.0669752 2.78703 0)
(-0.53762 2.23954 0)
(-0.50689 1.35794 0)
(-0.856675 0.984572 0)
(-0.980005 0.742453 0)
(-1.10266 0.592355 0)
(-1.1926 0.572431 0)
(-1.17249 0.644497 0)
(-1.00581 0.668376 0)
(-0.785937 0.503736 0)
(-0.638408 0.246435 0)
(-0.573283 0.0295035 0)
(-0.543604 -0.134796 0)
(-0.530539 -0.245141 0)
(-0.508904 -0.326175 0)
(-0.476108 -0.420069 0)
(-0.462301 -0.551159 0)
(-0.494788 -0.694834 0)
(-0.560018 -0.788102 0)
(-0.586358 -0.787012 0)
(-0.509124 -0.686603 0)
(-0.377182 -0.475083 0)
(-0.324566 0.861434 0)
(0.176077 2.99454 0)
(-0.34943 2.38907 0)
(-0.264541 1.56981 0)
(-0.574976 1.14282 0)
(-0.604597 0.84588 0)
(-0.674399 0.673753 0)
(-0.737657 0.620313 0)
(-0.736279 0.598641 0)
(-0.64171 0.52863 0)
(-0.511169 0.363485 0)
(-0.41696 0.154295 0)
(-0.365783 -0.024517 0)
(-0.340361 -0.149825 0)
(-0.316046 -0.244245 0)
(-0.28383 -0.319571 0)
(-0.253159 -0.398718 0)
(-0.237696 -0.504235 0)
(-0.254786 -0.619079 0)
(-0.308661 -0.703553 0)
(-0.363516 -0.75639 0)
(-0.383961 -0.795053 0)
(-0.365382 -0.792158 0)
(-0.402975 0.928336 0)
(0.412637 2.99724 0)
(0.00291378 2.64946 0)
(-0.0597612 1.76068 0)
(-0.360653 1.25495 0)
(-0.348721 0.902424 0)
(-0.439412 0.723123 0)
(-0.521788 0.660385 0)
(-0.563538 0.586574 0)
(-0.550022 0.461954 0)
(-0.515677 0.286184 0)
(-0.490637 0.101279 0)
(-0.46567 -0.0608277 0)
(-0.422666 -0.199602 0)
(-0.366831 -0.306976 0)
(-0.299613 -0.389455 0)
(-0.231233 -0.461714 0)
(-0.178598 -0.536214 0)
(-0.154786 -0.60464 0)
(-0.160056 -0.661923 0)
(-0.185146 -0.704471 0)
(-0.21919 -0.715426 0)
(-0.245267 -0.730475 0)
(-0.443579 0.926435 0)
(0.333924 2.33026 0)
(0.239776 2.87992 0)
(-0.0064313 1.9574 0)
(-0.243295 1.35308 0)
(-0.233235 0.974941 0)
(-0.403409 0.818922 0)
(-0.538029 0.751298 0)
(-0.646485 0.638467 0)
(-0.705915 0.476736 0)
(-0.724508 0.280756 0)
(-0.706453 0.0798231 0)
(-0.652124 -0.10457 0)
(-0.57115 -0.262083 0)
(-0.478123 -0.384195 0)
(-0.382209 -0.475186 0)
(-0.291649 -0.544346 0)
(-0.214364 -0.59986 0)
(-0.156301 -0.642194 0)
(-0.122843 -0.672158 0)
(-0.11201 -0.695136 0)
(-0.119692 -0.706458 0)
(-0.132716 -0.721533 0)
(-0.437968 0.851599 0)
(0.369106 2.4146 0)
(-0.125785 3.02137 0)
(-0.0549955 2.1141 0)
(-0.239325 1.43589 0)
(-0.247181 1.09945 0)
(-0.499654 0.985965 0)
(-0.694901 0.90985 0)
(-0.872579 0.761189 0)
(-0.980847 0.54838 0)
(-1.01319 0.294229 0)
(-0.970692 0.0388224 0)
(-0.871175 -0.187635 0)
(-0.737087 -0.367187 0)
(-0.59409 -0.496023 0)
(-0.461322 -0.583735 0)
(-0.34714 -0.641936 0)
(-0.252729 -0.679696 0)
(-0.178995 -0.701897 0)
(-0.124362 -0.71135 0)
(-0.0893813 -0.712083 0)
(-0.0703701 -0.705484 0)
(-0.070883 -0.706184 0)
(-0.369104 0.722738 0)
(0.197088 2.58643 0)
(-0.542042 3.02039 0)
(-0.109737 2.17001 0)
(-0.314976 1.50084 0)
(-0.344469 1.28067 0)
(-0.665183 1.22089 0)
(-0.925388 1.13113 0)
(-1.16609 0.925615 0)
(-1.30908 0.624488 0)
(-1.34542 0.276998 0)
(-1.28002 -0.0576504 0)
(-1.13072 -0.342411 0)
(-0.927827 -0.544453 0)
(-0.715754 -0.663288 0)
(-0.529251 -0.726888 0)
(-0.381493 -0.758493 0)
(-0.270616 -0.772174 0)
(-0.188507 -0.773263 0)
(-0.129218 -0.764154 0)
(-0.0869689 -0.748244 0)
(-0.0569647 -0.729216 0)
(-0.041272 -0.710461 0)
(-0.577632 1.12571 0)
(-0.111999 2.80195 0)
(-0.728041 2.89681 0)
(-0.121557 2.13987 0)
(-0.392803 1.5758 0)
(-0.452439 1.51448 0)
(-0.826303 1.51579 0)
(-1.12983 1.41369 0)
(-1.39627 1.14218 0)
(-1.54479 0.736366 0)
(-1.57882 0.26746 0)
(-1.50935 -0.184926 0)
(-1.3443 -0.557722 0)
(-1.09611 -0.804957 0)
(-0.820065 -0.90978 0)
(-0.576593 -0.92476 0)
(-0.389429 -0.90551 0)
(-0.257382 -0.876283 0)
(-0.167264 -0.845157 0)
(-0.108026 -0.813766 0)
(-0.0700526 -0.783107 0)
(-0.0456625 -0.753412 0)
(-0.0311822 -0.725178 0)
(-0.722467 1.38873 0)
(0.180848 2.94926 0)
(-0.631966 2.75804 0)
(-0.0325002 2.1094 0)
(-0.399832 1.69039 0)
(-0.48036 1.78464 0)
(-0.85949 1.83348 0)
(-1.14343 1.68251 0)
(-1.37485 1.29214 0)
(-1.4943 0.7602 0)
(-1.53021 0.193572 0)
(-1.49332 -0.326277 0)
(-1.35758 -0.784823 0)
(-1.13252 -1.09853 0)
(-0.842313 -1.21218 0)
(-0.566117 -1.1717 0)
(-0.354891 -1.0811 0)
(-0.211035 -0.994714 0)
(-0.118881 -0.922012 0)
(-0.0622104 -0.861018 0)
(-0.0299051 -0.809623 0)
(-0.0143782 -0.767181 0)
(-0.0105168 -0.731634 0)
(-0.791089 1.46656 0)
(0.639683 3.02461 0)
(-0.38058 2.79145 0)
(0.15995 2.1382 0)
(-0.305983 1.85243 0)
(-0.346046 2.04134 0)
(-0.670975 2.10015 0)
(-0.866019 1.89952 0)
(-1.02635 1.44999 0)
(-1.12362 0.869878 0)
(-1.18282 0.222045 0)
(-1.18656 -0.43499 0)
(-1.07255 -0.998339 0)
(-0.922469 -1.36457 0)
(-0.702997 -1.50523 0)
(-0.451539 -1.42967 0)
(-0.249368 -1.26242 0)
(-0.117324 -1.10955 0)
(-0.038054 -0.991931 0)
(0.00555066 -0.901175 0)
(0.0271058 -0.828997 0)
(0.0336611 -0.771471 0)
(0.0284513 -0.725791 0)
(-0.805716 1.46322 0)
(0.565015 2.83658 0)
(-0.125439 2.90192 0)
(0.27661 2.19111 0)
(-0.141106 2.02153 0)
(-0.0439005 2.22811 0)
(-0.263791 2.2785 0)
(-0.351734 2.03596 0)
(-0.424996 1.58215 0)
(-0.502864 0.99198 0)
(-0.575596 0.32612 0)
(-0.615624 -0.401618 0)
(-0.54819 -1.09003 0)
(-0.448947 -1.54414 0)
(-0.344783 -1.71588 0)
(-0.204329 -1.63227 0)
(-0.0576909 -1.41231 0)
(0.0305828 -1.19884 0)
(0.0772071 -1.03931 0)
(0.0962265 -0.923059 0)
(0.0987411 -0.834853 0)
(0.0912479 -0.766296 0)
(0.0763721 -0.712275 0)
(-0.763687 1.43384 0)
(0.533907 2.75742 0)
(-0.0363036 2.88684 0)
(0.306135 2.20125 0)
(0.065732 2.0854 0)
(0.287045 2.25368 0)
(0.310312 2.33379 0)
(0.354256 2.11122 0)
(0.366133 1.67804 0)
(0.330881 1.10611 0)
(0.283902 0.444116 0)
(0.264148 -0.332942 0)
(0.21152 -1.08241 0)
(0.20844 -1.6045 0)
(0.191844 -1.79719 0)
(0.175011 -1.72115 0)
(0.208873 -1.48361 0)
(0.225425 -1.23541 0)
(0.220593 -1.04848 0)
(0.20396 -0.917067 0)
(0.181124 -0.820517 0)
(0.155398 -0.746762 0)
(0.128207 -0.689111 0)
(-0.681511 1.38971 0)
(0.631454 2.73285 0)
(0.0784709 2.78798 0)
(0.370609 2.21952 0)
(0.334745 1.98545 0)
(0.569765 2.02205 0)
(0.846314 2.12842 0)
(1.0857 2.02395 0)
(1.24634 1.68877 0)
(1.29407 1.18409 0)
(1.29049 0.559361 0)
(1.24479 -0.172919 0)
(1.12295 -0.927034 0)
(0.954389 -1.50089 0)
(0.795326 -1.73085 0)
(0.628586 -1.66942 0)
(0.520339 -1.44226 0)
(0.442897 -1.19555 0)
(0.375706 -1.00757 0)
(0.317503 -0.877015 0)
(0.26645 -0.782483 0)
(0.220909 -0.710754 0)
(0.18027 -0.654687 0)
(-0.553001 1.31217 0)
(0.575237 2.49529 0)
(0.443432 2.64458 0)
(0.648144 2.33656 0)
(0.785796 1.91534 0)
(0.986239 1.71007 0)
(1.32702 1.70158 0)
(1.69874 1.67342 0)
(1.99027 1.48188 0)
(2.14056 1.10396 0)
(2.17779 0.568238 0)
(2.10021 -0.0714164 0)
(1.92201 -0.731931 0)
(1.65819 -1.26879 0)
(1.35625 -1.51256 0)
(1.05699 -1.47378 0)
(0.819777 -1.28287 0)
(0.647942 -1.0727 0)
(0.520374 -0.913154 0)
(0.422688 -0.801931 0)
(0.345283 -0.720587 0)
(0.281488 -0.658205 0)
(0.228276 -0.608895 0)
(-0.266627 1.2466 0)
(0.477429 2.10587 0)
(0.715774 2.31758 0)
(1.1617 2.06407 0)
(1.4633 1.72398 0)
(1.67339 1.49536 0)
(1.96544 1.37309 0)
(2.29731 1.31022 0)
(2.59159 1.20093 0)
(2.77014 0.959428 0)
(2.80678 0.57004 0)
(2.70216 0.0694218 0)
(2.48438 -0.480134 0)
(2.16422 -0.946181 0)
(1.76882 -1.17268 0)
(1.3708 -1.15795 0)
(1.04113 -1.02459 0)
(0.801836 -0.880744 0)
(0.631454 -0.774365 0)
(0.505396 -0.697938 0)
(0.408596 -0.639019 0)
(0.331217 -0.591919 0)
(0.268391 -0.553393 0)
(-0.0541264 1.13682 0)
(0.366088 1.58941 0)
(0.714148 1.8826 0)
(1.19052 1.7053 0)
(1.65995 1.38096 0)
(2.09231 1.15252 0)
(2.48638 1.06619 0)
(2.81306 1.06395 0)
(3.04539 1.02979 0)
(3.17011 0.899671 0)
(3.16027 0.643878 0)
(3.02073 0.268388 0)
(2.76596 -0.177226 0)
(2.395 -0.560222 0)
(1.94329 -0.752943 0)
(1.49693 -0.769136 0)
(1.1352 -0.711246 0)
(0.876997 -0.653354 0)
(0.69309 -0.612238 0)
(0.555934 -0.577466 0)
(0.450242 -0.545485 0)
(0.365993 -0.516864 0)
(0.297865 -0.491407 0)
(0.025556 0.932148 0)
(0.263071 1.2272 0)
(0.632522 1.30757 0)
(1.08361 1.12889 0)
(1.53019 0.854301 0)
(1.96033 0.662146 0)
(2.36963 0.623829 0)
(2.7246 0.7164 0)
(2.98089 0.830467 0)
(3.10939 0.84975 0)
(3.09241 0.725597 0)
(2.93975 0.466912 0)
(2.66521 0.135693 0)
(2.279 -0.15089 0)
(1.83146 -0.312865 0)
(1.41958 -0.374949 0)
(1.09917 -0.405397 0)
(0.872163 -0.433811 0)
(0.703479 -0.452027 0)
(0.572369 -0.455215 0)
(0.468562 -0.449115 0)
(0.384439 -0.438939 0)
(0.315612 -0.426839 0)
(0.0552077 0.805822 0)
(0.219481 1.02237 0)
(0.516438 0.931113 0)
(0.865649 0.670807 0)
(1.2019 0.398314 0)
(1.5253 0.237037 0)
(1.85445 0.242798 0)
(2.16689 0.395898 0)
(2.40782 0.609794 0)
(2.53014 0.765065 0)
(2.51865 0.788174 0)
(2.38872 0.663013 0)
(2.15472 0.444875 0)
(1.83229 0.231611 0)
(1.48747 0.0721467 0)
(1.19517 -0.0525901 0)
(0.976927 -0.165305 0)
(0.810493 -0.255468 0)
(0.673535 -0.312549 0)
(0.559983 -0.34312 0)
(0.466139 -0.357865 0)
(0.387756 -0.363526 0)
(0.322147 -0.36341 0)
(0.0588652 0.695097 0)
(0.194257 0.834809 0)
(0.396 0.682866 0)
(0.598969 0.431763 0)
(0.759558 0.169608 0)
(0.904477 0.0103577 0)
(1.08058 0.0235479 0)
(1.27532 0.208855 0)
(1.44955 0.480353 0)
(1.56778 0.717267 0)
(1.60811 0.83045 0)
(1.56556 0.796619 0)
(1.44565 0.662378 0)
(1.27157 0.490832 0)
(1.09498 0.31289 0)
(0.949087 0.138125 0)
(0.831031 -0.0142144 0)
(0.72182 -0.127115 0)
(0.61938 -0.201133 0)
(0.527771 -0.247813 0)
(0.448013 -0.276918 0)
(0.378792 -0.294499 0)
(0.319102 -0.304028 0)
(0.0523179 0.586031 0)
(0.163885 0.692666 0)
(0.292514 0.539054 0)
(0.389125 0.324077 0)
(0.418187 0.100208 0)
(0.40459 -0.0592287 0)
(0.408557 -0.0509104 0)
(0.462544 0.140884 0)
(0.565765 0.413301 0)
(0.671834 0.656654 0)
(0.758257 0.803369 0)
(0.810878 0.823043 0)
(0.823478 0.736884 0)
(0.807918 0.584083 0)
(0.783761 0.398256 0)
(0.749097 0.216815 0)
(0.694669 0.0690438 0)
(0.626659 -0.0398618 0)
(0.554506 -0.117116 0)
(0.484454 -0.171141 0)
(0.419674 -0.208527 0)
(0.36097 -0.233992 0)
(0.308642 -0.250557 0)
(0.0403353 0.496204 0)
(0.129165 0.590518 0)
(0.213344 0.45757 0)
(0.261711 0.294897 0)
(0.244794 0.13412 0)
(0.15703 0.00342672 0)
(0.0548792 -0.0219304 0)
(0.006635 0.103539 0)
(0.0258992 0.330952 0)
(0.10563 0.554397 0)
(0.219839 0.69731 0)
(0.337619 0.734263 0)
(0.443056 0.671679 0)
(0.529917 0.541097 0)
(0.583943 0.383582 0)
(0.597258 0.234938 0)
(0.576971 0.112311 0)
(0.537085 0.0168783 0)
(0.488349 -0.0565268 0)
(0.436716 -0.11183 0)
(0.38581 -0.152772 0)
(0.337521 -0.182701 0)
(0.292985 -0.20392 0)
(0.0273636 0.428339 0)
(0.0947324 0.513701 0)
(0.153729 0.402092 0)
(0.182763 0.286688 0)
(0.16482 0.18842 0)
(0.0873963 0.105433 0)
(-0.025292 0.0774251 0)
(-0.111992 0.139953 0)
(-0.132958 0.281038 0)
(-0.0827158 0.442797 0)
(0.0247867 0.55342 0)
(0.158614 0.586124 0)
(0.289087 0.542984 0)
(0.393639 0.44985 0)
(0.457868 0.338054 0)
(0.48323 0.229135 0)
(0.479823 0.132687 0)
(0.458093 0.0517857 0)
(0.42612 -0.0143024 0)
(0.388988 -0.0671456 0)
(0.349907 -0.108467 0)
(0.311102 -0.140335 0)
(0.27411 -0.164312 0)
(0.017315 0.380053 0)
(0.0662199 0.457006 0)
(0.109433 0.36205 0)
(0.129477 0.279252 0)
(0.12103 0.224869 0)
(0.076386 0.184858 0)
(0.00502376 0.171426 0)
(-0.0589967 0.20502 0)
(-0.0813707 0.281217 0)
(-0.0490095 0.373073 0)
(0.0321693 0.440303 0)
(0.137306 0.458947 0)
(0.238642 0.431385 0)
(0.319069 0.371393 0)
(0.371073 0.295345 0)
(0.39651 0.215616 0)
(0.401045 0.13993 0)
(0.390502 0.0723702 0)
(0.370077 0.0145818 0)
(0.343788 -0.0340086 0)
(0.314305 -0.0739026 0)
(0.283688 -0.10606 0)
(0.253572 -0.131427 0)
(0.0107225 0.346609 0)
(0.0458268 0.415792 0)
(0.0784827 0.332773 0)
(0.093063 0.271469 0)
(0.0908308 0.241516 0)
(0.0698529 0.225872 0)
(0.0362169 0.224332 0)
(0.00516884 0.245046 0)
(-0.0034847 0.285971 0)
(0.0210541 0.333283 0)
(0.0748088 0.367839 0)
(0.14338 0.375505 0)
(0.211131 0.356173 0)
(0.267365 0.315093 0)
(0.307056 0.26048 0)
(0.329774 0.200188 0)
(0.337586 0.140145 0)
(0.333573 0.0840452 0)
(0.320828 0.0339092 0)
(0.302278 -0.00989698 0)
(0.280289 -0.0473828 0)
(0.25652 -0.0787984 0)
(0.232375 -0.10461 0)
(0.00685832 0.323205 0)
(0.0327544 0.385084 0)
(0.0582583 0.310878 0)
(0.0694893 0.264357 0)
(0.0701932 0.248077 0)
(0.0613009 0.243375 0)
(0.048182 0.245775 0)
(0.0383453 0.258414 0)
(0.0407439 0.280494 0)
(0.0607471 0.304356 0)
(0.0967067 0.320307 0)
(0.141823 0.321134 0)
(0.187796 0.304965 0)
(0.227989 0.273885 0)
(0.25841 0.232379 0)
(0.277655 0.18536 0)
(0.286214 0.136957 0)
(0.28566 0.0901116 0)
(0.2779 0.0466215 0)
(0.264986 0.00753742 0)
(0.248658 -0.0271444 0)
(0.23021 -0.0572974 0)
(0.210842 -0.082925 0)
(0.0048275 0.306016 0)
(0.0248888 0.361271 0)
(0.0453952 0.293668 0)
(0.0547804 0.257558 0)
(0.0573659 0.249714 0)
(0.0550298 0.249937 0)
(0.0519619 0.252627 0)
(0.0521948 0.259305 0)
(0.0597096 0.270025 0)
(0.0769158 0.280951 0)
(0.10312 0.286761 0)
(0.134894 0.283074 0)
(0.167627 0.268227 0)
(0.19711 0.24307 0)
(0.220407 0.21008 0)
(0.236124 0.172286 0)
(0.244161 0.132496 0)
(0.245264 0.0929368 0)
(0.24062 0.055158 0)
(0.231456 0.020187 0)
(0.219024 -0.0117222 0)
(0.204485 -0.0402595 0)
(0.188652 -0.0651869 0)
(0.00413942 0.292368 0)
(0.0204113 0.342063 0)
(0.0370956 0.279702 0)
(0.0455503 0.250822 0)
(0.0495573 0.248155 0)
(0.0512494 0.250526 0)
(0.0534176 0.252214 0)
(0.0581957 0.254679 0)
(0.0675189 0.258625 0)
(0.0824754 0.262114 0)
(0.102622 0.261952 0)
(0.126052 0.255429 0)
(0.150053 0.241324 0)
(0.171948 0.219937 0)
(0.189706 0.192654 0)
(0.202184 0.161357 0)
(0.209069 0.127946 0)
(0.210657 0.094062 0)
(0.207612 0.0609706 0)
(0.200726 0.0295525 0)
(0.190886 0.000425886 0)
(0.178867 -0.026266 0)
(0.165267 -0.050148 0)
(0.00426111 0.280311 0)
(0.0180716 0.326389 0)
(0.0317065 0.268085 0)
(0.0395236 0.244143 0)
(0.0444093 0.244422 0)
(0.0485191 0.247395 0)
(0.0535312 0.247854 0)
(0.0603882 0.247546 0)
(0.0699882 0.247506 0)
(0.0828528 0.246667 0)
(0.098695 0.243038 0)
(0.116381 0.23489 0)
(0.134246 0.221369 0)
(0.150568 0.202558 0)
(0.16395 0.179254 0)
(0.173509 0.152647 0)
(0.17888 0.124031 0)
(0.180126 0.0946156 0)
(0.177593 0.0654183 0)
(0.171796 0.0372291 0)
(0.163278 0.0106387 0)
(0.152658 -0.0141756 0)
(0.140496 -0.0368405 0)
(0.00468682 0.26891 0)
(0.0169992 0.3132 0)
(0.0282476 0.258187 0)
(0.0353912 0.237655 0)
(0.0406584 0.239404 0)
(0.0460773 0.242186 0)
(0.0524835 0.24158 0)
(0.0600701 0.239538 0)
(0.0692059 0.237189 0)
(0.0801534 0.233898 0)
(0.0927213 0.228346 0)
(0.106199 0.219401 0)
(0.119524 0.206486 0)
(0.131564 0.189607 0)
(0.141351 0.169239 0)
(0.148219 0.146154 0)
(0.151833 0.121252 0)
(0.152149 0.0954328 0)
(0.149345 0.0695023 0)
(0.143762 0.0441234 0)
(0.135815 0.019786 0)
(0.126075 -0.00319388 0)
(0.115068 -0.0247738 0)
(0.00512468 0.257924 0)
(0.0166267 0.301806 0)
(0.0261075 0.249824 0)
(0.0324775 0.231635 0)
(0.0377179 0.233874 0)
(0.0437005 0.236086 0)
(0.0505787 0.234661 0)
(0.0581027 0.231633 0)
(0.066393 0.228051 0)
(0.0755751 0.223467 0)
(0.0855023 0.216964 0)
(0.0956985 0.207799 0)
(0.105457 0.195583 0)
(0.114014 0.180299 0)
(0.120705 0.162243 0)
(0.125048 0.141926 0)
(0.126775 0.119989 0)
(0.125834 0.0971008 0)
(0.122349 0.0738871 0)
(0.116604 0.05087 0)
(0.108997 0.0284351 0)
(0.100023 0.00684869 0)
(0.090271 -0.014046 0)
(0.00539454 0.246453 0)
(0.0163719 0.290844 0)
(0.0245216 0.242366 0)
(0.0300629 0.225996 0)
(0.0349641 0.228051 0)
(0.0409727 0.229487 0)
(0.0476806 0.227505 0)
(0.0546294 0.224053 0)
(0.0618301 0.219968 0)
(0.0693171 0.214869 0)
(0.0769574 0.208109 0)
(0.0844067 0.199187 0)
(0.0911788 0.187835 0)
(0.096765 0.174019 0)
(0.100724 0.157919 0)
(0.102741 0.139879 0)
(0.102653 0.12035 0)
(0.100461 0.0998253 0)
(0.0963139 0.0787687 0)
(0.0904973 0.0575615 0)
(0.0834099 0.0364758 0)
(0.0754979 0.0156578 0)
(0.0674121 -0.00500357 0)
(0.00552745 0.237439 0)
(0.0164776 0.282623 0)
(0.0239595 0.237163 0)
(0.0286953 0.221822 0)
(0.0331771 0.223377 0)
(0.0390968 0.224119 0)
(0.045523 0.221795 0)